V -t * -v 1.0a5 -a 0
A -t * -n 1 -p 0 -o 0x7fffffff -c 30 -a 1
A -t * -h 1 -m 1073741823 -s 0
c -t * -i 2 -n red
n -t * -a 0 -s 0 -S UP -v red -c black -i black
n -t * -a 1 -s 1 -S UP -v circle -c black -i black
n -t * -a 2 -s 2 -S UP -v square -c blue -i blue
l -t * -s 0 -d 1 -S UP -r 500000 -D 0.02 -c black
l -t * -s 1 -d 2 -S UP -r 500000 -D 0.02 -c black
+ -t 0.5 -s 0 -d 1 -p cbr -e 512 -c 2 -i 0 -a 2 -x {0.0 2.0 0 ------- null}
- -t 0.5 -s 0 -d 1 -p cbr -e 512 -c 2 -i 0 -a 2 -x {0.0 2.0 0 ------- null}
h -t 0.5 -s 0 -d 1 -p cbr -e 512 -c 2 -i 0 -a 2 -x {0.0 2.0 -1 ------- null}
+ -t 0.505 -s 0 -d 1 -p cbr -e 512 -c 2 -i 1 -a 2 -x {0.0 2.0 1 ------- null}
- -t 0.508192 -s 0 -d 1 -p cbr -e 512 -c 2 -i 1 -a 2 -x {0.0 2.0 1 ------- null}
h -t 0.508192 -s 0 -d 1 -p cbr -e 512 -c 2 -i 1 -a 2 -x {0.0 2.0 -1 ------- null}
+ -t 0.51 -s 0 -d 1 -p cbr -e 512 -c 2 -i 2 -a 2 -x {0.0 2.0 2 ------- null}
+ -t 0.515 -s 0 -d 1 -p cbr -e 512 -c 2 -i 3 -a 2 -x {0.0 2.0 3 ------- null}
- -t 0.516384 -s 0 -d 1 -p cbr -e 512 -c 2 -i 2 -a 2 -x {0.0 2.0 2 ------- null}
h -t 0.516384 -s 0 -d 1 -p cbr -e 512 -c 2 -i 2 -a 2 -x {0.0 2.0 -1 ------- null}
+ -t 0.52 -s 0 -d 1 -p cbr -e 512 -c 2 -i 4 -a 2 -x {0.0 2.0 4 ------- null}
- -t 0.524576 -s 0 -d 1 -p cbr -e 512 -c 2 -i 3 -a 2 -x {0.0 2.0 3 ------- null}
h -t 0.524576 -s 0 -d 1 -p cbr -e 512 -c 2 -i 3 -a 2 -x {0.0 2.0 -1 ------- null}
+ -t 0.525 -s 0 -d 1 -p cbr -e 512 -c 2 -i 5 -a 2 -x {0.0 2.0 5 ------- null}
r -t 0.528192 -s 0 -d 1 -p cbr -e 512 -c 2 -i 0 -a 2 -x {0.0 2.0 0 ------- null}
+ -t 0.528192 -s 1 -d 2 -p cbr -e 512 -c 2 -i 0 -a 2 -x {0.0 2.0 0 ------- null}
- -t 0.528192 -s 1 -d 2 -p cbr -e 512 -c 2 -i 0 -a 2 -x {0.0 2.0 0 ------- null}
h -t 0.528192 -s 1 -d 2 -p cbr -e 512 -c 2 -i 0 -a 2 -x {0.0 2.0 -1 ------- null}
+ -t 0.53 -s 0 -d 1 -p cbr -e 512 -c 2 -i 6 -a 2 -x {0.0 2.0 6 ------- null}
- -t 0.532768 -s 0 -d 1 -p cbr -e 512 -c 2 -i 4 -a 2 -x {0.0 2.0 4 ------- null}
h -t 0.532768 -s 0 -d 1 -p cbr -e 512 -c 2 -i 4 -a 2 -x {0.0 2.0 -1 ------- null}
+ -t 0.535 -s 0 -d 1 -p cbr -e 512 -c 2 -i 7 -a 2 -x {0.0 2.0 7 ------- null}
r -t 0.536384 -s 0 -d 1 -p cbr -e 512 -c 2 -i 1 -a 2 -x {0.0 2.0 1 ------- null}
+ -t 0.536384 -s 1 -d 2 -p cbr -e 512 -c 2 -i 1 -a 2 -x {0.0 2.0 1 ------- null}
- -t 0.536384 -s 1 -d 2 -p cbr -e 512 -c 2 -i 1 -a 2 -x {0.0 2.0 1 ------- null}
h -t 0.536384 -s 1 -d 2 -p cbr -e 512 -c 2 -i 1 -a 2 -x {0.0 2.0 -1 ------- null}
+ -t 0.54 -s 0 -d 1 -p cbr -e 512 -c 2 -i 8 -a 2 -x {0.0 2.0 8 ------- null}
- -t 0.54096 -s 0 -d 1 -p cbr -e 512 -c 2 -i 5 -a 2 -x {0.0 2.0 5 ------- null}
h -t 0.54096 -s 0 -d 1 -p cbr -e 512 -c 2 -i 5 -a 2 -x {0.0 2.0 -1 ------- null}
r -t 0.544576 -s 0 -d 1 -p cbr -e 512 -c 2 -i 2 -a 2 -x {0.0 2.0 2 ------- null}
+ -t 0.544576 -s 1 -d 2 -p cbr -e 512 -c 2 -i 2 -a 2 -x {0.0 2.0 2 ------- null}
- -t 0.544576 -s 1 -d 2 -p cbr -e 512 -c 2 -i 2 -a 2 -x {0.0 2.0 2 ------- null}
h -t 0.544576 -s 1 -d 2 -p cbr -e 512 -c 2 -i 2 -a 2 -x {0.0 2.0 -1 ------- null}
+ -t 0.545 -s 0 -d 1 -p cbr -e 512 -c 2 -i 9 -a 2 -x {0.0 2.0 9 ------- null}
- -t 0.549152 -s 0 -d 1 -p cbr -e 512 -c 2 -i 6 -a 2 -x {0.0 2.0 6 ------- null}
h -t 0.549152 -s 0 -d 1 -p cbr -e 512 -c 2 -i 6 -a 2 -x {0.0 2.0 -1 ------- null}
+ -t 0.55 -s 0 -d 1 -p cbr -e 512 -c 2 -i 10 -a 2 -x {0.0 2.0 10 ------- null}
r -t 0.552768 -s 0 -d 1 -p cbr -e 512 -c 2 -i 3 -a 2 -x {0.0 2.0 3 ------- null}
+ -t 0.552768 -s 1 -d 2 -p cbr -e 512 -c 2 -i 3 -a 2 -x {0.0 2.0 3 ------- null}
- -t 0.552768 -s 1 -d 2 -p cbr -e 512 -c 2 -i 3 -a 2 -x {0.0 2.0 3 ------- null}
h -t 0.552768 -s 1 -d 2 -p cbr -e 512 -c 2 -i 3 -a 2 -x {0.0 2.0 -1 ------- null}
+ -t 0.555 -s 0 -d 1 -p cbr -e 512 -c 2 -i 11 -a 2 -x {0.0 2.0 11 ------- null}
r -t 0.556384 -s 1 -d 2 -p cbr -e 512 -c 2 -i 0 -a 2 -x {0.0 2.0 0 ------- null}
- -t 0.557344 -s 0 -d 1 -p cbr -e 512 -c 2 -i 7 -a 2 -x {0.0 2.0 7 ------- null}
h -t 0.557344 -s 0 -d 1 -p cbr -e 512 -c 2 -i 7 -a 2 -x {0.0 2.0 -1 ------- null}
+ -t 0.56 -s 0 -d 1 -p cbr -e 512 -c 2 -i 12 -a 2 -x {0.0 2.0 12 ------- null}
r -t 0.56096 -s 0 -d 1 -p cbr -e 512 -c 2 -i 4 -a 2 -x {0.0 2.0 4 ------- null}
+ -t 0.56096 -s 1 -d 2 -p cbr -e 512 -c 2 -i 4 -a 2 -x {0.0 2.0 4 ------- null}
- -t 0.56096 -s 1 -d 2 -p cbr -e 512 -c 2 -i 4 -a 2 -x {0.0 2.0 4 ------- null}
h -t 0.56096 -s 1 -d 2 -p cbr -e 512 -c 2 -i 4 -a 2 -x {0.0 2.0 -1 ------- null}
r -t 0.564576 -s 1 -d 2 -p cbr -e 512 -c 2 -i 1 -a 2 -x {0.0 2.0 1 ------- null}
+ -t 0.565 -s 0 -d 1 -p cbr -e 512 -c 2 -i 13 -a 2 -x {0.0 2.0 13 ------- null}
- -t 0.565536 -s 0 -d 1 -p cbr -e 512 -c 2 -i 8 -a 2 -x {0.0 2.0 8 ------- null}
h -t 0.565536 -s 0 -d 1 -p cbr -e 512 -c 2 -i 8 -a 2 -x {0.0 2.0 -1 ------- null}
r -t 0.569152 -s 0 -d 1 -p cbr -e 512 -c 2 -i 5 -a 2 -x {0.0 2.0 5 ------- null}
+ -t 0.569152 -s 1 -d 2 -p cbr -e 512 -c 2 -i 5 -a 2 -x {0.0 2.0 5 ------- null}
- -t 0.569152 -s 1 -d 2 -p cbr -e 512 -c 2 -i 5 -a 2 -x {0.0 2.0 5 ------- null}
h -t 0.569152 -s 1 -d 2 -p cbr -e 512 -c 2 -i 5 -a 2 -x {0.0 2.0 -1 ------- null}
+ -t 0.57 -s 0 -d 1 -p cbr -e 512 -c 2 -i 14 -a 2 -x {0.0 2.0 14 ------- null}
r -t 0.572768 -s 1 -d 2 -p cbr -e 512 -c 2 -i 2 -a 2 -x {0.0 2.0 2 ------- null}
- -t 0.573728 -s 0 -d 1 -p cbr -e 512 -c 2 -i 9 -a 2 -x {0.0 2.0 9 ------- null}
h -t 0.573728 -s 0 -d 1 -p cbr -e 512 -c 2 -i 9 -a 2 -x {0.0 2.0 -1 ------- null}
+ -t 0.575 -s 0 -d 1 -p cbr -e 512 -c 2 -i 15 -a 2 -x {0.0 2.0 15 ------- null}
r -t 0.577344 -s 0 -d 1 -p cbr -e 512 -c 2 -i 6 -a 2 -x {0.0 2.0 6 ------- null}
+ -t 0.577344 -s 1 -d 2 -p cbr -e 512 -c 2 -i 6 -a 2 -x {0.0 2.0 6 ------- null}
- -t 0.577344 -s 1 -d 2 -p cbr -e 512 -c 2 -i 6 -a 2 -x {0.0 2.0 6 ------- null}
h -t 0.577344 -s 1 -d 2 -p cbr -e 512 -c 2 -i 6 -a 2 -x {0.0 2.0 -1 ------- null}
+ -t 0.58 -s 0 -d 1 -p cbr -e 512 -c 2 -i 16 -a 2 -x {0.0 2.0 16 ------- null}
r -t 0.58096 -s 1 -d 2 -p cbr -e 512 -c 2 -i 3 -a 2 -x {0.0 2.0 3 ------- null}
- -t 0.58192 -s 0 -d 1 -p cbr -e 512 -c 2 -i 10 -a 2 -x {0.0 2.0 10 ------- null}
h -t 0.58192 -s 0 -d 1 -p cbr -e 512 -c 2 -i 10 -a 2 -x {0.0 2.0 -1 ------- null}
+ -t 0.585 -s 0 -d 1 -p cbr -e 512 -c 2 -i 17 -a 2 -x {0.0 2.0 17 ------- null}
r -t 0.585536 -s 0 -d 1 -p cbr -e 512 -c 2 -i 7 -a 2 -x {0.0 2.0 7 ------- null}
+ -t 0.585536 -s 1 -d 2 -p cbr -e 512 -c 2 -i 7 -a 2 -x {0.0 2.0 7 ------- null}
- -t 0.585536 -s 1 -d 2 -p cbr -e 512 -c 2 -i 7 -a 2 -x {0.0 2.0 7 ------- null}
h -t 0.585536 -s 1 -d 2 -p cbr -e 512 -c 2 -i 7 -a 2 -x {0.0 2.0 -1 ------- null}
r -t 0.589152 -s 1 -d 2 -p cbr -e 512 -c 2 -i 4 -a 2 -x {0.0 2.0 4 ------- null}
+ -t 0.59 -s 0 -d 1 -p cbr -e 512 -c 2 -i 18 -a 2 -x {0.0 2.0 18 ------- null}
- -t 0.590112 -s 0 -d 1 -p cbr -e 512 -c 2 -i 11 -a 2 -x {0.0 2.0 11 ------- null}
h -t 0.590112 -s 0 -d 1 -p cbr -e 512 -c 2 -i 11 -a 2 -x {0.0 2.0 -1 ------- null}
r -t 0.593728 -s 0 -d 1 -p cbr -e 512 -c 2 -i 8 -a 2 -x {0.0 2.0 8 ------- null}
+ -t 0.593728 -s 1 -d 2 -p cbr -e 512 -c 2 -i 8 -a 2 -x {0.0 2.0 8 ------- null}
- -t 0.593728 -s 1 -d 2 -p cbr -e 512 -c 2 -i 8 -a 2 -x {0.0 2.0 8 ------- null}
h -t 0.593728 -s 1 -d 2 -p cbr -e 512 -c 2 -i 8 -a 2 -x {0.0 2.0 -1 ------- null}
+ -t 0.595 -s 0 -d 1 -p cbr -e 512 -c 2 -i 19 -a 2 -x {0.0 2.0 19 ------- null}
r -t 0.597344 -s 1 -d 2 -p cbr -e 512 -c 2 -i 5 -a 2 -x {0.0 2.0 5 ------- null}
- -t 0.598304 -s 0 -d 1 -p cbr -e 512 -c 2 -i 12 -a 2 -x {0.0 2.0 12 ------- null}
h -t 0.598304 -s 0 -d 1 -p cbr -e 512 -c 2 -i 12 -a 2 -x {0.0 2.0 -1 ------- null}
+ -t 0.6 -s 0 -d 1 -p cbr -e 512 -c 2 -i 20 -a 2 -x {0.0 2.0 20 ------- null}
r -t 0.60192 -s 0 -d 1 -p cbr -e 512 -c 2 -i 9 -a 2 -x {0.0 2.0 9 ------- null}
+ -t 0.60192 -s 1 -d 2 -p cbr -e 512 -c 2 -i 9 -a 2 -x {0.0 2.0 9 ------- null}
- -t 0.60192 -s 1 -d 2 -p cbr -e 512 -c 2 -i 9 -a 2 -x {0.0 2.0 9 ------- null}
h -t 0.60192 -s 1 -d 2 -p cbr -e 512 -c 2 -i 9 -a 2 -x {0.0 2.0 -1 ------- null}
+ -t 0.605 -s 0 -d 1 -p cbr -e 512 -c 2 -i 21 -a 2 -x {0.0 2.0 21 ------- null}
r -t 0.605536 -s 1 -d 2 -p cbr -e 512 -c 2 -i 6 -a 2 -x {0.0 2.0 6 ------- null}
- -t 0.606496 -s 0 -d 1 -p cbr -e 512 -c 2 -i 13 -a 2 -x {0.0 2.0 13 ------- null}
h -t 0.606496 -s 0 -d 1 -p cbr -e 512 -c 2 -i 13 -a 2 -x {0.0 2.0 -1 ------- null}
+ -t 0.61 -s 0 -d 1 -p cbr -e 512 -c 2 -i 22 -a 2 -x {0.0 2.0 22 ------- null}
r -t 0.610112 -s 0 -d 1 -p cbr -e 512 -c 2 -i 10 -a 2 -x {0.0 2.0 10 ------- null}
+ -t 0.610112 -s 1 -d 2 -p cbr -e 512 -c 2 -i 10 -a 2 -x {0.0 2.0 10 ------- null}
- -t 0.610112 -s 1 -d 2 -p cbr -e 512 -c 2 -i 10 -a 2 -x {0.0 2.0 10 ------- null}
h -t 0.610112 -s 1 -d 2 -p cbr -e 512 -c 2 -i 10 -a 2 -x {0.0 2.0 -1 ------- null}
r -t 0.613728 -s 1 -d 2 -p cbr -e 512 -c 2 -i 7 -a 2 -x {0.0 2.0 7 ------- null}
- -t 0.614688 -s 0 -d 1 -p cbr -e 512 -c 2 -i 14 -a 2 -x {0.0 2.0 14 ------- null}
h -t 0.614688 -s 0 -d 1 -p cbr -e 512 -c 2 -i 14 -a 2 -x {0.0 2.0 -1 ------- null}
+ -t 0.615 -s 0 -d 1 -p cbr -e 512 -c 2 -i 23 -a 2 -x {0.0 2.0 23 ------- null}
r -t 0.618304 -s 0 -d 1 -p cbr -e 512 -c 2 -i 11 -a 2 -x {0.0 2.0 11 ------- null}
+ -t 0.618304 -s 1 -d 2 -p cbr -e 512 -c 2 -i 11 -a 2 -x {0.0 2.0 11 ------- null}
- -t 0.618304 -s 1 -d 2 -p cbr -e 512 -c 2 -i 11 -a 2 -x {0.0 2.0 11 ------- null}
h -t 0.618304 -s 1 -d 2 -p cbr -e 512 -c 2 -i 11 -a 2 -x {0.0 2.0 -1 ------- null}
+ -t 0.62 -s 0 -d 1 -p cbr -e 512 -c 2 -i 24 -a 2 -x {0.0 2.0 24 ------- null}
d -t 0.62 -s 0 -d 1 -p cbr -e 512 -c 2 -i 24 -a 2 -x {0.0 2.0 24 ------- null}
r -t 0.62192 -s 1 -d 2 -p cbr -e 512 -c 2 -i 8 -a 2 -x {0.0 2.0 8 ------- null}
- -t 0.62288 -s 0 -d 1 -p cbr -e 512 -c 2 -i 15 -a 2 -x {0.0 2.0 15 ------- null}
h -t 0.62288 -s 0 -d 1 -p cbr -e 512 -c 2 -i 15 -a 2 -x {0.0 2.0 -1 ------- null}
+ -t 0.625 -s 0 -d 1 -p cbr -e 512 -c 2 -i 25 -a 2 -x {0.0 2.0 25 ------- null}
r -t 0.626496 -s 0 -d 1 -p cbr -e 512 -c 2 -i 12 -a 2 -x {0.0 2.0 12 ------- null}
+ -t 0.626496 -s 1 -d 2 -p cbr -e 512 -c 2 -i 12 -a 2 -x {0.0 2.0 12 ------- null}
- -t 0.626496 -s 1 -d 2 -p cbr -e 512 -c 2 -i 12 -a 2 -x {0.0 2.0 12 ------- null}
h -t 0.626496 -s 1 -d 2 -p cbr -e 512 -c 2 -i 12 -a 2 -x {0.0 2.0 -1 ------- null}
+ -t 0.63 -s 0 -d 1 -p cbr -e 512 -c 2 -i 26 -a 2 -x {0.0 2.0 26 ------- null}
d -t 0.63 -s 0 -d 1 -p cbr -e 512 -c 2 -i 26 -a 2 -x {0.0 2.0 26 ------- null}
r -t 0.630112 -s 1 -d 2 -p cbr -e 512 -c 2 -i 9 -a 2 -x {0.0 2.0 9 ------- null}
- -t 0.631072 -s 0 -d 1 -p cbr -e 512 -c 2 -i 16 -a 2 -x {0.0 2.0 16 ------- null}
h -t 0.631072 -s 0 -d 1 -p cbr -e 512 -c 2 -i 16 -a 2 -x {0.0 2.0 -1 ------- null}
r -t 0.634688 -s 0 -d 1 -p cbr -e 512 -c 2 -i 13 -a 2 -x {0.0 2.0 13 ------- null}
+ -t 0.634688 -s 1 -d 2 -p cbr -e 512 -c 2 -i 13 -a 2 -x {0.0 2.0 13 ------- null}
- -t 0.634688 -s 1 -d 2 -p cbr -e 512 -c 2 -i 13 -a 2 -x {0.0 2.0 13 ------- null}
h -t 0.634688 -s 1 -d 2 -p cbr -e 512 -c 2 -i 13 -a 2 -x {0.0 2.0 -1 ------- null}
+ -t 0.635 -s 0 -d 1 -p cbr -e 512 -c 2 -i 27 -a 2 -x {0.0 2.0 27 ------- null}
r -t 0.638304 -s 1 -d 2 -p cbr -e 512 -c 2 -i 10 -a 2 -x {0.0 2.0 10 ------- null}
- -t 0.639264 -s 0 -d 1 -p cbr -e 512 -c 2 -i 17 -a 2 -x {0.0 2.0 17 ------- null}
h -t 0.639264 -s 0 -d 1 -p cbr -e 512 -c 2 -i 17 -a 2 -x {0.0 2.0 -1 ------- null}
+ -t 0.64 -s 0 -d 1 -p cbr -e 512 -c 2 -i 28 -a 2 -x {0.0 2.0 28 ------- null}
r -t 0.64288 -s 0 -d 1 -p cbr -e 512 -c 2 -i 14 -a 2 -x {0.0 2.0 14 ------- null}
+ -t 0.64288 -s 1 -d 2 -p cbr -e 512 -c 2 -i 14 -a 2 -x {0.0 2.0 14 ------- null}
- -t 0.64288 -s 1 -d 2 -p cbr -e 512 -c 2 -i 14 -a 2 -x {0.0 2.0 14 ------- null}
h -t 0.64288 -s 1 -d 2 -p cbr -e 512 -c 2 -i 14 -a 2 -x {0.0 2.0 -1 ------- null}
+ -t 0.645 -s 0 -d 1 -p cbr -e 512 -c 2 -i 29 -a 2 -x {0.0 2.0 29 ------- null}
d -t 0.645 -s 0 -d 1 -p cbr -e 512 -c 2 -i 29 -a 2 -x {0.0 2.0 29 ------- null}
r -t 0.646496 -s 1 -d 2 -p cbr -e 512 -c 2 -i 11 -a 2 -x {0.0 2.0 11 ------- null}
- -t 0.647456 -s 0 -d 1 -p cbr -e 512 -c 2 -i 18 -a 2 -x {0.0 2.0 18 ------- null}
h -t 0.647456 -s 0 -d 1 -p cbr -e 512 -c 2 -i 18 -a 2 -x {0.0 2.0 -1 ------- null}
+ -t 0.65 -s 0 -d 1 -p cbr -e 512 -c 2 -i 30 -a 2 -x {0.0 2.0 30 ------- null}
r -t 0.651072 -s 0 -d 1 -p cbr -e 512 -c 2 -i 15 -a 2 -x {0.0 2.0 15 ------- null}
+ -t 0.651072 -s 1 -d 2 -p cbr -e 512 -c 2 -i 15 -a 2 -x {0.0 2.0 15 ------- null}
- -t 0.651072 -s 1 -d 2 -p cbr -e 512 -c 2 -i 15 -a 2 -x {0.0 2.0 15 ------- null}
h -t 0.651072 -s 1 -d 2 -p cbr -e 512 -c 2 -i 15 -a 2 -x {0.0 2.0 -1 ------- null}
r -t 0.654688 -s 1 -d 2 -p cbr -e 512 -c 2 -i 12 -a 2 -x {0.0 2.0 12 ------- null}
+ -t 0.655 -s 0 -d 1 -p cbr -e 512 -c 2 -i 31 -a 2 -x {0.0 2.0 31 ------- null}
d -t 0.655 -s 0 -d 1 -p cbr -e 512 -c 2 -i 31 -a 2 -x {0.0 2.0 31 ------- null}
- -t 0.655648 -s 0 -d 1 -p cbr -e 512 -c 2 -i 19 -a 2 -x {0.0 2.0 19 ------- null}
h -t 0.655648 -s 0 -d 1 -p cbr -e 512 -c 2 -i 19 -a 2 -x {0.0 2.0 -1 ------- null}
r -t 0.659264 -s 0 -d 1 -p cbr -e 512 -c 2 -i 16 -a 2 -x {0.0 2.0 16 ------- null}
+ -t 0.659264 -s 1 -d 2 -p cbr -e 512 -c 2 -i 16 -a 2 -x {0.0 2.0 16 ------- null}
- -t 0.659264 -s 1 -d 2 -p cbr -e 512 -c 2 -i 16 -a 2 -x {0.0 2.0 16 ------- null}
h -t 0.659264 -s 1 -d 2 -p cbr -e 512 -c 2 -i 16 -a 2 -x {0.0 2.0 -1 ------- null}
+ -t 0.66 -s 0 -d 1 -p cbr -e 512 -c 2 -i 32 -a 2 -x {0.0 2.0 32 ------- null}
r -t 0.66288 -s 1 -d 2 -p cbr -e 512 -c 2 -i 13 -a 2 -x {0.0 2.0 13 ------- null}
- -t 0.66384 -s 0 -d 1 -p cbr -e 512 -c 2 -i 20 -a 2 -x {0.0 2.0 20 ------- null}
h -t 0.66384 -s 0 -d 1 -p cbr -e 512 -c 2 -i 20 -a 2 -x {0.0 2.0 -1 ------- null}
+ -t 0.665 -s 0 -d 1 -p cbr -e 512 -c 2 -i 33 -a 2 -x {0.0 2.0 33 ------- null}
r -t 0.667456 -s 0 -d 1 -p cbr -e 512 -c 2 -i 17 -a 2 -x {0.0 2.0 17 ------- null}
+ -t 0.667456 -s 1 -d 2 -p cbr -e 512 -c 2 -i 17 -a 2 -x {0.0 2.0 17 ------- null}
- -t 0.667456 -s 1 -d 2 -p cbr -e 512 -c 2 -i 17 -a 2 -x {0.0 2.0 17 ------- null}
h -t 0.667456 -s 1 -d 2 -p cbr -e 512 -c 2 -i 17 -a 2 -x {0.0 2.0 -1 ------- null}
+ -t 0.67 -s 0 -d 1 -p cbr -e 512 -c 2 -i 34 -a 2 -x {0.0 2.0 34 ------- null}
d -t 0.67 -s 0 -d 1 -p cbr -e 512 -c 2 -i 34 -a 2 -x {0.0 2.0 34 ------- null}
r -t 0.671072 -s 1 -d 2 -p cbr -e 512 -c 2 -i 14 -a 2 -x {0.0 2.0 14 ------- null}
- -t 0.672032 -s 0 -d 1 -p cbr -e 512 -c 2 -i 21 -a 2 -x {0.0 2.0 21 ------- null}
h -t 0.672032 -s 0 -d 1 -p cbr -e 512 -c 2 -i 21 -a 2 -x {0.0 2.0 -1 ------- null}
+ -t 0.675 -s 0 -d 1 -p cbr -e 512 -c 2 -i 35 -a 2 -x {0.0 2.0 35 ------- null}
r -t 0.675648 -s 0 -d 1 -p cbr -e 512 -c 2 -i 18 -a 2 -x {0.0 2.0 18 ------- null}
+ -t 0.675648 -s 1 -d 2 -p cbr -e 512 -c 2 -i 18 -a 2 -x {0.0 2.0 18 ------- null}
- -t 0.675648 -s 1 -d 2 -p cbr -e 512 -c 2 -i 18 -a 2 -x {0.0 2.0 18 ------- null}
h -t 0.675648 -s 1 -d 2 -p cbr -e 512 -c 2 -i 18 -a 2 -x {0.0 2.0 -1 ------- null}
r -t 0.679264 -s 1 -d 2 -p cbr -e 512 -c 2 -i 15 -a 2 -x {0.0 2.0 15 ------- null}
+ -t 0.68 -s 0 -d 1 -p cbr -e 512 -c 2 -i 36 -a 2 -x {0.0 2.0 36 ------- null}
d -t 0.68 -s 0 -d 1 -p cbr -e 512 -c 2 -i 36 -a 2 -x {0.0 2.0 36 ------- null}
- -t 0.680223999999999 -s 0 -d 1 -p cbr -e 512 -c 2 -i 22 -a 2 -x {0.0 2.0 22 ------- null}
h -t 0.680223999999999 -s 0 -d 1 -p cbr -e 512 -c 2 -i 22 -a 2 -x {0.0 2.0 -1 ------- null}
r -t 0.68384 -s 0 -d 1 -p cbr -e 512 -c 2 -i 19 -a 2 -x {0.0 2.0 19 ------- null}
+ -t 0.68384 -s 1 -d 2 -p cbr -e 512 -c 2 -i 19 -a 2 -x {0.0 2.0 19 ------- null}
- -t 0.68384 -s 1 -d 2 -p cbr -e 512 -c 2 -i 19 -a 2 -x {0.0 2.0 19 ------- null}
h -t 0.68384 -s 1 -d 2 -p cbr -e 512 -c 2 -i 19 -a 2 -x {0.0 2.0 -1 ------- null}
+ -t 0.685 -s 0 -d 1 -p cbr -e 512 -c 2 -i 37 -a 2 -x {0.0 2.0 37 ------- null}
r -t 0.687456 -s 1 -d 2 -p cbr -e 512 -c 2 -i 16 -a 2 -x {0.0 2.0 16 ------- null}
- -t 0.688415999999999 -s 0 -d 1 -p cbr -e 512 -c 2 -i 23 -a 2 -x {0.0 2.0 23 ------- null}
h -t 0.688415999999999 -s 0 -d 1 -p cbr -e 512 -c 2 -i 23 -a 2 -x {0.0 2.0 -1 ------- null}
+ -t 0.69 -s 0 -d 1 -p cbr -e 512 -c 2 -i 38 -a 2 -x {0.0 2.0 38 ------- null}
r -t 0.692032 -s 0 -d 1 -p cbr -e 512 -c 2 -i 20 -a 2 -x {0.0 2.0 20 ------- null}
+ -t 0.692032 -s 1 -d 2 -p cbr -e 512 -c 2 -i 20 -a 2 -x {0.0 2.0 20 ------- null}
- -t 0.692032 -s 1 -d 2 -p cbr -e 512 -c 2 -i 20 -a 2 -x {0.0 2.0 20 ------- null}
h -t 0.692032 -s 1 -d 2 -p cbr -e 512 -c 2 -i 20 -a 2 -x {0.0 2.0 -1 ------- null}
+ -t 0.695 -s 0 -d 1 -p cbr -e 512 -c 2 -i 39 -a 2 -x {0.0 2.0 39 ------- null}
d -t 0.695 -s 0 -d 1 -p cbr -e 512 -c 2 -i 39 -a 2 -x {0.0 2.0 39 ------- null}
r -t 0.695648 -s 1 -d 2 -p cbr -e 512 -c 2 -i 17 -a 2 -x {0.0 2.0 17 ------- null}
- -t 0.696607999999999 -s 0 -d 1 -p cbr -e 512 -c 2 -i 25 -a 2 -x {0.0 2.0 25 ------- null}
h -t 0.696607999999999 -s 0 -d 1 -p cbr -e 512 -c 2 -i 25 -a 2 -x {0.0 2.0 -1 ------- null}
+ -t 0.7 -s 0 -d 1 -p cbr -e 512 -c 2 -i 40 -a 2 -x {0.0 2.0 40 ------- null}
r -t 0.700224 -s 0 -d 1 -p cbr -e 512 -c 2 -i 21 -a 2 -x {0.0 2.0 21 ------- null}
+ -t 0.700224 -s 1 -d 2 -p cbr -e 512 -c 2 -i 21 -a 2 -x {0.0 2.0 21 ------- null}
- -t 0.700224 -s 1 -d 2 -p cbr -e 512 -c 2 -i 21 -a 2 -x {0.0 2.0 21 ------- null}
h -t 0.700224 -s 1 -d 2 -p cbr -e 512 -c 2 -i 21 -a 2 -x {0.0 2.0 -1 ------- null}
r -t 0.70384 -s 1 -d 2 -p cbr -e 512 -c 2 -i 18 -a 2 -x {0.0 2.0 18 ------- null}
- -t 0.704799999999999 -s 0 -d 1 -p cbr -e 512 -c 2 -i 27 -a 2 -x {0.0 2.0 27 ------- null}
h -t 0.704799999999999 -s 0 -d 1 -p cbr -e 512 -c 2 -i 27 -a 2 -x {0.0 2.0 -1 ------- null}
+ -t 0.705 -s 0 -d 1 -p cbr -e 512 -c 2 -i 41 -a 2 -x {0.0 2.0 41 ------- null}
r -t 0.708415999999999 -s 0 -d 1 -p cbr -e 512 -c 2 -i 22 -a 2 -x {0.0 2.0 22 ------- null}
+ -t 0.708415999999999 -s 1 -d 2 -p cbr -e 512 -c 2 -i 22 -a 2 -x {0.0 2.0 22 ------- null}
- -t 0.708415999999999 -s 1 -d 2 -p cbr -e 512 -c 2 -i 22 -a 2 -x {0.0 2.0 22 ------- null}
h -t 0.708415999999999 -s 1 -d 2 -p cbr -e 512 -c 2 -i 22 -a 2 -x {0.0 2.0 -1 ------- null}
+ -t 0.71 -s 0 -d 1 -p cbr -e 512 -c 2 -i 42 -a 2 -x {0.0 2.0 42 ------- null}
d -t 0.71 -s 0 -d 1 -p cbr -e 512 -c 2 -i 42 -a 2 -x {0.0 2.0 42 ------- null}
r -t 0.712032 -s 1 -d 2 -p cbr -e 512 -c 2 -i 19 -a 2 -x {0.0 2.0 19 ------- null}
- -t 0.712991999999999 -s 0 -d 1 -p cbr -e 512 -c 2 -i 28 -a 2 -x {0.0 2.0 28 ------- null}
h -t 0.712991999999999 -s 0 -d 1 -p cbr -e 512 -c 2 -i 28 -a 2 -x {0.0 2.0 -1 ------- null}
+ -t 0.715 -s 0 -d 1 -p cbr -e 512 -c 2 -i 43 -a 2 -x {0.0 2.0 43 ------- null}
r -t 0.716607999999999 -s 0 -d 1 -p cbr -e 512 -c 2 -i 23 -a 2 -x {0.0 2.0 23 ------- null}
+ -t 0.716607999999999 -s 1 -d 2 -p cbr -e 512 -c 2 -i 23 -a 2 -x {0.0 2.0 23 ------- null}
- -t 0.716607999999999 -s 1 -d 2 -p cbr -e 512 -c 2 -i 23 -a 2 -x {0.0 2.0 23 ------- null}
h -t 0.716607999999999 -s 1 -d 2 -p cbr -e 512 -c 2 -i 23 -a 2 -x {0.0 2.0 -1 ------- null}
+ -t 0.72 -s 0 -d 1 -p cbr -e 512 -c 2 -i 44 -a 2 -x {0.0 2.0 44 ------- null}
d -t 0.72 -s 0 -d 1 -p cbr -e 512 -c 2 -i 44 -a 2 -x {0.0 2.0 44 ------- null}
r -t 0.720224 -s 1 -d 2 -p cbr -e 512 -c 2 -i 20 -a 2 -x {0.0 2.0 20 ------- null}
- -t 0.721183999999999 -s 0 -d 1 -p cbr -e 512 -c 2 -i 30 -a 2 -x {0.0 2.0 30 ------- null}
h -t 0.721183999999999 -s 0 -d 1 -p cbr -e 512 -c 2 -i 30 -a 2 -x {0.0 2.0 -1 ------- null}
r -t 0.724799999999999 -s 0 -d 1 -p cbr -e 512 -c 2 -i 25 -a 2 -x {0.0 2.0 25 ------- null}
+ -t 0.724799999999999 -s 1 -d 2 -p cbr -e 512 -c 2 -i 25 -a 2 -x {0.0 2.0 25 ------- null}
- -t 0.724799999999999 -s 1 -d 2 -p cbr -e 512 -c 2 -i 25 -a 2 -x {0.0 2.0 25 ------- null}
h -t 0.724799999999999 -s 1 -d 2 -p cbr -e 512 -c 2 -i 25 -a 2 -x {0.0 2.0 -1 ------- null}
+ -t 0.725 -s 0 -d 1 -p cbr -e 512 -c 2 -i 45 -a 2 -x {0.0 2.0 45 ------- null}
r -t 0.728416 -s 1 -d 2 -p cbr -e 512 -c 2 -i 21 -a 2 -x {0.0 2.0 21 ------- null}
- -t 0.729375999999999 -s 0 -d 1 -p cbr -e 512 -c 2 -i 32 -a 2 -x {0.0 2.0 32 ------- null}
h -t 0.729375999999999 -s 0 -d 1 -p cbr -e 512 -c 2 -i 32 -a 2 -x {0.0 2.0 -1 ------- null}
+ -t 0.73 -s 0 -d 1 -p cbr -e 512 -c 2 -i 46 -a 2 -x {0.0 2.0 46 ------- null}
r -t 0.732991999999999 -s 0 -d 1 -p cbr -e 512 -c 2 -i 27 -a 2 -x {0.0 2.0 27 ------- null}
+ -t 0.732991999999999 -s 1 -d 2 -p cbr -e 512 -c 2 -i 27 -a 2 -x {0.0 2.0 27 ------- null}
- -t 0.732991999999999 -s 1 -d 2 -p cbr -e 512 -c 2 -i 27 -a 2 -x {0.0 2.0 27 ------- null}
h -t 0.732991999999999 -s 1 -d 2 -p cbr -e 512 -c 2 -i 27 -a 2 -x {0.0 2.0 -1 ------- null}
+ -t 0.735 -s 0 -d 1 -p cbr -e 512 -c 2 -i 47 -a 2 -x {0.0 2.0 47 ------- null}
d -t 0.735 -s 0 -d 1 -p cbr -e 512 -c 2 -i 47 -a 2 -x {0.0 2.0 47 ------- null}
r -t 0.736607999999999 -s 1 -d 2 -p cbr -e 512 -c 2 -i 22 -a 2 -x {0.0 2.0 22 ------- null}
- -t 0.737567999999999 -s 0 -d 1 -p cbr -e 512 -c 2 -i 33 -a 2 -x {0.0 2.0 33 ------- null}
h -t 0.737567999999999 -s 0 -d 1 -p cbr -e 512 -c 2 -i 33 -a 2 -x {0.0 2.0 -1 ------- null}
+ -t 0.74 -s 0 -d 1 -p cbr -e 512 -c 2 -i 48 -a 2 -x {0.0 2.0 48 ------- null}
r -t 0.741183999999999 -s 0 -d 1 -p cbr -e 512 -c 2 -i 28 -a 2 -x {0.0 2.0 28 ------- null}
+ -t 0.741183999999999 -s 1 -d 2 -p cbr -e 512 -c 2 -i 28 -a 2 -x {0.0 2.0 28 ------- null}
- -t 0.741183999999999 -s 1 -d 2 -p cbr -e 512 -c 2 -i 28 -a 2 -x {0.0 2.0 28 ------- null}
h -t 0.741183999999999 -s 1 -d 2 -p cbr -e 512 -c 2 -i 28 -a 2 -x {0.0 2.0 -1 ------- null}
r -t 0.744799999999999 -s 1 -d 2 -p cbr -e 512 -c 2 -i 23 -a 2 -x {0.0 2.0 23 ------- null}
+ -t 0.745 -s 0 -d 1 -p cbr -e 512 -c 2 -i 49 -a 2 -x {0.0 2.0 49 ------- null}
d -t 0.745 -s 0 -d 1 -p cbr -e 512 -c 2 -i 49 -a 2 -x {0.0 2.0 49 ------- null}
- -t 0.745759999999999 -s 0 -d 1 -p cbr -e 512 -c 2 -i 35 -a 2 -x {0.0 2.0 35 ------- null}
h -t 0.745759999999999 -s 0 -d 1 -p cbr -e 512 -c 2 -i 35 -a 2 -x {0.0 2.0 -1 ------- null}
r -t 0.749375999999999 -s 0 -d 1 -p cbr -e 512 -c 2 -i 30 -a 2 -x {0.0 2.0 30 ------- null}
+ -t 0.749375999999999 -s 1 -d 2 -p cbr -e 512 -c 2 -i 30 -a 2 -x {0.0 2.0 30 ------- null}
- -t 0.749375999999999 -s 1 -d 2 -p cbr -e 512 -c 2 -i 30 -a 2 -x {0.0 2.0 30 ------- null}
h -t 0.749375999999999 -s 1 -d 2 -p cbr -e 512 -c 2 -i 30 -a 2 -x {0.0 2.0 -1 ------- null}
+ -t 0.75 -s 0 -d 1 -p cbr -e 512 -c 2 -i 50 -a 2 -x {0.0 2.0 50 ------- null}
r -t 0.752991999999999 -s 1 -d 2 -p cbr -e 512 -c 2 -i 25 -a 2 -x {0.0 2.0 25 ------- null}
- -t 0.753951999999999 -s 0 -d 1 -p cbr -e 512 -c 2 -i 37 -a 2 -x {0.0 2.0 37 ------- null}
h -t 0.753951999999999 -s 0 -d 1 -p cbr -e 512 -c 2 -i 37 -a 2 -x {0.0 2.0 -1 ------- null}
+ -t 0.755 -s 0 -d 1 -p cbr -e 512 -c 2 -i 51 -a 2 -x {0.0 2.0 51 ------- null}
r -t 0.757567999999999 -s 0 -d 1 -p cbr -e 512 -c 2 -i 32 -a 2 -x {0.0 2.0 32 ------- null}
+ -t 0.757567999999999 -s 1 -d 2 -p cbr -e 512 -c 2 -i 32 -a 2 -x {0.0 2.0 32 ------- null}
- -t 0.757567999999999 -s 1 -d 2 -p cbr -e 512 -c 2 -i 32 -a 2 -x {0.0 2.0 32 ------- null}
h -t 0.757567999999999 -s 1 -d 2 -p cbr -e 512 -c 2 -i 32 -a 2 -x {0.0 2.0 -1 ------- null}
+ -t 0.76 -s 0 -d 1 -p cbr -e 512 -c 2 -i 52 -a 2 -x {0.0 2.0 52 ------- null}
d -t 0.76 -s 0 -d 1 -p cbr -e 512 -c 2 -i 52 -a 2 -x {0.0 2.0 52 ------- null}
r -t 0.761183999999999 -s 1 -d 2 -p cbr -e 512 -c 2 -i 27 -a 2 -x {0.0 2.0 27 ------- null}
- -t 0.762143999999999 -s 0 -d 1 -p cbr -e 512 -c 2 -i 38 -a 2 -x {0.0 2.0 38 ------- null}
h -t 0.762143999999999 -s 0 -d 1 -p cbr -e 512 -c 2 -i 38 -a 2 -x {0.0 2.0 -1 ------- null}
+ -t 0.765 -s 0 -d 1 -p cbr -e 512 -c 2 -i 53 -a 2 -x {0.0 2.0 53 ------- null}
r -t 0.765759999999999 -s 0 -d 1 -p cbr -e 512 -c 2 -i 33 -a 2 -x {0.0 2.0 33 ------- null}
+ -t 0.765759999999999 -s 1 -d 2 -p cbr -e 512 -c 2 -i 33 -a 2 -x {0.0 2.0 33 ------- null}
- -t 0.765759999999999 -s 1 -d 2 -p cbr -e 512 -c 2 -i 33 -a 2 -x {0.0 2.0 33 ------- null}
h -t 0.765759999999999 -s 1 -d 2 -p cbr -e 512 -c 2 -i 33 -a 2 -x {0.0 2.0 -1 ------- null}
r -t 0.769375999999999 -s 1 -d 2 -p cbr -e 512 -c 2 -i 28 -a 2 -x {0.0 2.0 28 ------- null}
+ -t 0.77 -s 0 -d 1 -p cbr -e 512 -c 2 -i 54 -a 2 -x {0.0 2.0 54 ------- null}
d -t 0.77 -s 0 -d 1 -p cbr -e 512 -c 2 -i 54 -a 2 -x {0.0 2.0 54 ------- null}
- -t 0.770335999999999 -s 0 -d 1 -p cbr -e 512 -c 2 -i 40 -a 2 -x {0.0 2.0 40 ------- null}
h -t 0.770335999999999 -s 0 -d 1 -p cbr -e 512 -c 2 -i 40 -a 2 -x {0.0 2.0 -1 ------- null}
r -t 0.773951999999999 -s 0 -d 1 -p cbr -e 512 -c 2 -i 35 -a 2 -x {0.0 2.0 35 ------- null}
+ -t 0.773951999999999 -s 1 -d 2 -p cbr -e 512 -c 2 -i 35 -a 2 -x {0.0 2.0 35 ------- null}
- -t 0.773951999999999 -s 1 -d 2 -p cbr -e 512 -c 2 -i 35 -a 2 -x {0.0 2.0 35 ------- null}
h -t 0.773951999999999 -s 1 -d 2 -p cbr -e 512 -c 2 -i 35 -a 2 -x {0.0 2.0 -1 ------- null}
+ -t 0.775 -s 0 -d 1 -p cbr -e 512 -c 2 -i 55 -a 2 -x {0.0 2.0 55 ------- null}
r -t 0.777567999999999 -s 1 -d 2 -p cbr -e 512 -c 2 -i 30 -a 2 -x {0.0 2.0 30 ------- null}
- -t 0.778527999999999 -s 0 -d 1 -p cbr -e 512 -c 2 -i 41 -a 2 -x {0.0 2.0 41 ------- null}
h -t 0.778527999999999 -s 0 -d 1 -p cbr -e 512 -c 2 -i 41 -a 2 -x {0.0 2.0 -1 ------- null}
+ -t 0.78 -s 0 -d 1 -p cbr -e 512 -c 2 -i 56 -a 2 -x {0.0 2.0 56 ------- null}
r -t 0.782143999999999 -s 0 -d 1 -p cbr -e 512 -c 2 -i 37 -a 2 -x {0.0 2.0 37 ------- null}
+ -t 0.782143999999999 -s 1 -d 2 -p cbr -e 512 -c 2 -i 37 -a 2 -x {0.0 2.0 37 ------- null}
- -t 0.782143999999999 -s 1 -d 2 -p cbr -e 512 -c 2 -i 37 -a 2 -x {0.0 2.0 37 ------- null}
h -t 0.782143999999999 -s 1 -d 2 -p cbr -e 512 -c 2 -i 37 -a 2 -x {0.0 2.0 -1 ------- null}
+ -t 0.785 -s 0 -d 1 -p cbr -e 512 -c 2 -i 57 -a 2 -x {0.0 2.0 57 ------- null}
d -t 0.785 -s 0 -d 1 -p cbr -e 512 -c 2 -i 57 -a 2 -x {0.0 2.0 57 ------- null}
r -t 0.785759999999999 -s 1 -d 2 -p cbr -e 512 -c 2 -i 32 -a 2 -x {0.0 2.0 32 ------- null}
- -t 0.786719999999999 -s 0 -d 1 -p cbr -e 512 -c 2 -i 43 -a 2 -x {0.0 2.0 43 ------- null}
h -t 0.786719999999999 -s 0 -d 1 -p cbr -e 512 -c 2 -i 43 -a 2 -x {0.0 2.0 -1 ------- null}
+ -t 0.79 -s 0 -d 1 -p cbr -e 512 -c 2 -i 58 -a 2 -x {0.0 2.0 58 ------- null}
r -t 0.790335999999999 -s 0 -d 1 -p cbr -e 512 -c 2 -i 38 -a 2 -x {0.0 2.0 38 ------- null}
+ -t 0.790335999999999 -s 1 -d 2 -p cbr -e 512 -c 2 -i 38 -a 2 -x {0.0 2.0 38 ------- null}
- -t 0.790335999999999 -s 1 -d 2 -p cbr -e 512 -c 2 -i 38 -a 2 -x {0.0 2.0 38 ------- null}
h -t 0.790335999999999 -s 1 -d 2 -p cbr -e 512 -c 2 -i 38 -a 2 -x {0.0 2.0 -1 ------- null}
r -t 0.793951999999999 -s 1 -d 2 -p cbr -e 512 -c 2 -i 33 -a 2 -x {0.0 2.0 33 ------- null}
- -t 0.794911999999999 -s 0 -d 1 -p cbr -e 512 -c 2 -i 45 -a 2 -x {0.0 2.0 45 ------- null}
h -t 0.794911999999999 -s 0 -d 1 -p cbr -e 512 -c 2 -i 45 -a 2 -x {0.0 2.0 -1 ------- null}
+ -t 0.795 -s 0 -d 1 -p cbr -e 512 -c 2 -i 59 -a 2 -x {0.0 2.0 59 ------- null}
r -t 0.798527999999999 -s 0 -d 1 -p cbr -e 512 -c 2 -i 40 -a 2 -x {0.0 2.0 40 ------- null}
+ -t 0.798527999999999 -s 1 -d 2 -p cbr -e 512 -c 2 -i 40 -a 2 -x {0.0 2.0 40 ------- null}
- -t 0.798527999999999 -s 1 -d 2 -p cbr -e 512 -c 2 -i 40 -a 2 -x {0.0 2.0 40 ------- null}
h -t 0.798527999999999 -s 1 -d 2 -p cbr -e 512 -c 2 -i 40 -a 2 -x {0.0 2.0 -1 ------- null}
+ -t 0.8 -s 0 -d 1 -p cbr -e 512 -c 2 -i 60 -a 2 -x {0.0 2.0 60 ------- null}
d -t 0.8 -s 0 -d 1 -p cbr -e 512 -c 2 -i 60 -a 2 -x {0.0 2.0 60 ------- null}
r -t 0.802143999999999 -s 1 -d 2 -p cbr -e 512 -c 2 -i 35 -a 2 -x {0.0 2.0 35 ------- null}
- -t 0.803103999999999 -s 0 -d 1 -p cbr -e 512 -c 2 -i 46 -a 2 -x {0.0 2.0 46 ------- null}
h -t 0.803103999999999 -s 0 -d 1 -p cbr -e 512 -c 2 -i 46 -a 2 -x {0.0 2.0 -1 ------- null}
+ -t 0.805 -s 0 -d 1 -p cbr -e 512 -c 2 -i 61 -a 2 -x {0.0 2.0 61 ------- null}
r -t 0.806719999999999 -s 0 -d 1 -p cbr -e 512 -c 2 -i 41 -a 2 -x {0.0 2.0 41 ------- null}
+ -t 0.806719999999999 -s 1 -d 2 -p cbr -e 512 -c 2 -i 41 -a 2 -x {0.0 2.0 41 ------- null}
- -t 0.806719999999999 -s 1 -d 2 -p cbr -e 512 -c 2 -i 41 -a 2 -x {0.0 2.0 41 ------- null}
h -t 0.806719999999999 -s 1 -d 2 -p cbr -e 512 -c 2 -i 41 -a 2 -x {0.0 2.0 -1 ------- null}
+ -t 0.81 -s 0 -d 1 -p cbr -e 512 -c 2 -i 62 -a 2 -x {0.0 2.0 62 ------- null}
d -t 0.81 -s 0 -d 1 -p cbr -e 512 -c 2 -i 62 -a 2 -x {0.0 2.0 62 ------- null}
r -t 0.810335999999999 -s 1 -d 2 -p cbr -e 512 -c 2 -i 37 -a 2 -x {0.0 2.0 37 ------- null}
- -t 0.811295999999999 -s 0 -d 1 -p cbr -e 512 -c 2 -i 48 -a 2 -x {0.0 2.0 48 ------- null}
h -t 0.811295999999999 -s 0 -d 1 -p cbr -e 512 -c 2 -i 48 -a 2 -x {0.0 2.0 -1 ------- null}
r -t 0.814911999999999 -s 0 -d 1 -p cbr -e 512 -c 2 -i 43 -a 2 -x {0.0 2.0 43 ------- null}
+ -t 0.814911999999999 -s 1 -d 2 -p cbr -e 512 -c 2 -i 43 -a 2 -x {0.0 2.0 43 ------- null}
- -t 0.814911999999999 -s 1 -d 2 -p cbr -e 512 -c 2 -i 43 -a 2 -x {0.0 2.0 43 ------- null}
h -t 0.814911999999999 -s 1 -d 2 -p cbr -e 512 -c 2 -i 43 -a 2 -x {0.0 2.0 -1 ------- null}
+ -t 0.815 -s 0 -d 1 -p cbr -e 512 -c 2 -i 63 -a 2 -x {0.0 2.0 63 ------- null}
r -t 0.818527999999999 -s 1 -d 2 -p cbr -e 512 -c 2 -i 38 -a 2 -x {0.0 2.0 38 ------- null}
- -t 0.819487999999999 -s 0 -d 1 -p cbr -e 512 -c 2 -i 50 -a 2 -x {0.0 2.0 50 ------- null}
h -t 0.819487999999999 -s 0 -d 1 -p cbr -e 512 -c 2 -i 50 -a 2 -x {0.0 2.0 -1 ------- null}
+ -t 0.82 -s 0 -d 1 -p cbr -e 512 -c 2 -i 64 -a 2 -x {0.0 2.0 64 ------- null}
r -t 0.823103999999999 -s 0 -d 1 -p cbr -e 512 -c 2 -i 45 -a 2 -x {0.0 2.0 45 ------- null}
+ -t 0.823103999999999 -s 1 -d 2 -p cbr -e 512 -c 2 -i 45 -a 2 -x {0.0 2.0 45 ------- null}
- -t 0.823103999999999 -s 1 -d 2 -p cbr -e 512 -c 2 -i 45 -a 2 -x {0.0 2.0 45 ------- null}
h -t 0.823103999999999 -s 1 -d 2 -p cbr -e 512 -c 2 -i 45 -a 2 -x {0.0 2.0 -1 ------- null}
+ -t 0.825 -s 0 -d 1 -p cbr -e 512 -c 2 -i 65 -a 2 -x {0.0 2.0 65 ------- null}
d -t 0.825 -s 0 -d 1 -p cbr -e 512 -c 2 -i 65 -a 2 -x {0.0 2.0 65 ------- null}
r -t 0.826719999999999 -s 1 -d 2 -p cbr -e 512 -c 2 -i 40 -a 2 -x {0.0 2.0 40 ------- null}
- -t 0.827679999999999 -s 0 -d 1 -p cbr -e 512 -c 2 -i 51 -a 2 -x {0.0 2.0 51 ------- null}
h -t 0.827679999999999 -s 0 -d 1 -p cbr -e 512 -c 2 -i 51 -a 2 -x {0.0 2.0 -1 ------- null}
+ -t 0.83 -s 0 -d 1 -p cbr -e 512 -c 2 -i 66 -a 2 -x {0.0 2.0 66 ------- null}
r -t 0.831295999999999 -s 0 -d 1 -p cbr -e 512 -c 2 -i 46 -a 2 -x {0.0 2.0 46 ------- null}
+ -t 0.831295999999999 -s 1 -d 2 -p cbr -e 512 -c 2 -i 46 -a 2 -x {0.0 2.0 46 ------- null}