+ 0.5 0 1 cbr 512 ------- 2 0.0 2.0 0 0
- 0.5 0 1 cbr 512 ------- 2 0.0 2.0 0 0
+ 0.505 0 1 cbr 512 ------- 2 0.0 2.0 1 1
- 0.508192 0 1 cbr 512 ------- 2 0.0 2.0 1 1
+ 0.51 0 1 cbr 512 ------- 2 0.0 2.0 2 2
+ 0.515 0 1 cbr 512 ------- 2 0.0 2.0 3 3
- 0.516384 0 1 cbr 512 ------- 2 0.0 2.0 2 2
+ 0.52 0 1 cbr 512 ------- 2 0.0 2.0 4 4
- 0.524576 0 1 cbr 512 ------- 2 0.0 2.0 3 3
+ 0.525 0 1 cbr 512 ------- 2 0.0 2.0 5 5
r 0.528192 0 1 cbr 512 ------- 2 0.0 2.0 0 0
+ 0.528192 1 2 cbr 512 ------- 2 0.0 2.0 0 0
- 0.528192 1 2 cbr 512 ------- 2 0.0 2.0 0 0
+ 0.53 0 1 cbr 512 ------- 2 0.0 2.0 6 6
- 0.532768 0 1 cbr 512 ------- 2 0.0 2.0 4 4
+ 0.535 0 1 cbr 512 ------- 2 0.0 2.0 7 7
r 0.536384 0 1 cbr 512 ------- 2 0.0 2.0 1 1
+ 0.536384 1 2 cbr 512 ------- 2 0.0 2.0 1 1
- 0.536384 1 2 cbr 512 ------- 2 0.0 2.0 1 1
+ 0.54 0 1 cbr 512 ------- 2 0.0 2.0 8 8
- 0.54096 0 1 cbr 512 ------- 2 0.0 2.0 5 5
r 0.544576 0 1 cbr 512 ------- 2 0.0 2.0 2 2
+ 0.544576 1 2 cbr 512 ------- 2 0.0 2.0 2 2
- 0.544576 1 2 cbr 512 ------- 2 0.0 2.0 2 2
+ 0.545 0 1 cbr 512 ------- 2 0.0 2.0 9 9
- 0.549152 0 1 cbr 512 ------- 2 0.0 2.0 6 6
+ 0.55 0 1 cbr 512 ------- 2 0.0 2.0 10 10
r 0.552768 0 1 cbr 512 ------- 2 0.0 2.0 3 3
+ 0.552768 1 2 cbr 512 ------- 2 0.0 2.0 3 3
- 0.552768 1 2 cbr 512 ------- 2 0.0 2.0 3 3
+ 0.555 0 1 cbr 512 ------- 2 0.0 2.0 11 11
r 0.556384 1 2 cbr 512 ------- 2 0.0 2.0 0 0
- 0.557344 0 1 cbr 512 ------- 2 0.0 2.0 7 7
+ 0.56 0 1 cbr 512 ------- 2 0.0 2.0 12 12
r 0.56096 0 1 cbr 512 ------- 2 0.0 2.0 4 4
+ 0.56096 1 2 cbr 512 ------- 2 0.0 2.0 4 4
- 0.56096 1 2 cbr 512 ------- 2 0.0 2.0 4 4
r 0.564576 1 2 cbr 512 ------- 2 0.0 2.0 1 1
+ 0.565 0 1 cbr 512 ------- 2 0.0 2.0 13 13
- 0.565536 0 1 cbr 512 ------- 2 0.0 2.0 8 8
r 0.569152 0 1 cbr 512 ------- 2 0.0 2.0 5 5
+ 0.569152 1 2 cbr 512 ------- 2 0.0 2.0 5 5
- 0.569152 1 2 cbr 512 ------- 2 0.0 2.0 5 5
+ 0.57 0 1 cbr 512 ------- 2 0.0 2.0 14 14
r 0.572768 1 2 cbr 512 ------- 2 0.0 2.0 2 2
- 0.573728 0 1 cbr 512 ------- 2 0.0 2.0 9 9
+ 0.575 0 1 cbr 512 ------- 2 0.0 2.0 15 15
r 0.577344 0 1 cbr 512 ------- 2 0.0 2.0 6 6
+ 0.577344 1 2 cbr 512 ------- 2 0.0 2.0 6 6
- 0.577344 1 2 cbr 512 ------- 2 0.0 2.0 6 6
+ 0.58 0 1 cbr 512 ------- 2 0.0 2.0 16 16
r 0.58096 1 2 cbr 512 ------- 2 0.0 2.0 3 3
- 0.58192 0 1 cbr 512 ------- 2 0.0 2.0 10 10
+ 0.585 0 1 cbr 512 ------- 2 0.0 2.0 17 17
r 0.585536 0 1 cbr 512 ------- 2 0.0 2.0 7 7
+ 0.585536 1 2 cbr 512 ------- 2 0.0 2.0 7 7
- 0.585536 1 2 cbr 512 ------- 2 0.0 2.0 7 7
r 0.589152 1 2 cbr 512 ------- 2 0.0 2.0 4 4
+ 0.59 0 1 cbr 512 ------- 2 0.0 2.0 18 18
- 0.590112 0 1 cbr 512 ------- 2 0.0 2.0 11 11
r 0.593728 0 1 cbr 512 ------- 2 0.0 2.0 8 8
+ 0.593728 1 2 cbr 512 ------- 2 0.0 2.0 8 8
- 0.593728 1 2 cbr 512 ------- 2 0.0 2.0 8 8
+ 0.595 0 1 cbr 512 ------- 2 0.0 2.0 19 19
r 0.597344 1 2 cbr 512 ------- 2 0.0 2.0 5 5
- 0.598304 0 1 cbr 512 ------- 2 0.0 2.0 12 12
+ 0.6 0 1 cbr 512 ------- 2 0.0 2.0 20 20
r 0.60192 0 1 cbr 512 ------- 2 0.0 2.0 9 9
+ 0.60192 1 2 cbr 512 ------- 2 0.0 2.0 9 9
- 0.60192 1 2 cbr 512 ------- 2 0.0 2.0 9 9
+ 0.605 0 1 cbr 512 ------- 2 0.0 2.0 21 21
r 0.605536 1 2 cbr 512 ------- 2 0.0 2.0 6 6
- 0.606496 0 1 cbr 512 ------- 2 0.0 2.0 13 13
+ 0.61 0 1 cbr 512 ------- 2 0.0 2.0 22 22
r 0.610112 0 1 cbr 512 ------- 2 0.0 2.0 10 10
+ 0.610112 1 2 cbr 512 ------- 2 0.0 2.0 10 10
- 0.610112 1 2 cbr 512 ------- 2 0.0 2.0 10 10
r 0.613728 1 2 cbr 512 ------- 2 0.0 2.0 7 7
- 0.614688 0 1 cbr 512 ------- 2 0.0 2.0 14 14
+ 0.615 0 1 cbr 512 ------- 2 0.0 2.0 23 23
r 0.618304 0 1 cbr 512 ------- 2 0.0 2.0 11 11
+ 0.618304 1 2 cbr 512 ------- 2 0.0 2.0 11 11
- 0.618304 1 2 cbr 512 ------- 2 0.0 2.0 11 11
+ 0.62 0 1 cbr 512 ------- 2 0.0 2.0 24 24
d 0.62 0 1 cbr 512 ------- 2 0.0 2.0 24 24
r 0.62192 1 2 cbr 512 ------- 2 0.0 2.0 8 8
- 0.62288 0 1 cbr 512 ------- 2 0.0 2.0 15 15
+ 0.625 0 1 cbr 512 ------- 2 0.0 2.0 25 25
r 0.626496 0 1 cbr 512 ------- 2 0.0 2.0 12 12
+ 0.626496 1 2 cbr 512 ------- 2 0.0 2.0 12 12
- 0.626496 1 2 cbr 512 ------- 2 0.0 2.0 12 12
+ 0.63 0 1 cbr 512 ------- 2 0.0 2.0 26 26
d 0.63 0 1 cbr 512 ------- 2 0.0 2.0 26 26
r 0.630112 1 2 cbr 512 ------- 2 0.0 2.0 9 9
- 0.631072 0 1 cbr 512 ------- 2 0.0 2.0 16 16
r 0.634688 0 1 cbr 512 ------- 2 0.0 2.0 13 13
+ 0.634688 1 2 cbr 512 ------- 2 0.0 2.0 13 13
- 0.634688 1 2 cbr 512 ------- 2 0.0 2.0 13 13
+ 0.635 0 1 cbr 512 ------- 2 0.0 2.0 27 27
r 0.638304 1 2 cbr 512 ------- 2 0.0 2.0 10 10
- 0.639264 0 1 cbr 512 ------- 2 0.0 2.0 17 17
+ 0.64 0 1 cbr 512 ------- 2 0.0 2.0 28 28
r 0.64288 0 1 cbr 512 ------- 2 0.0 2.0 14 14
+ 0.64288 1 2 cbr 512 ------- 2 0.0 2.0 14 14
- 0.64288 1 2 cbr 512 ------- 2 0.0 2.0 14 14
+ 0.645 0 1 cbr 512 ------- 2 0.0 2.0 29 29
d 0.645 0 1 cbr 512 ------- 2 0.0 2.0 29 29
r 0.646496 1 2 cbr 512 ------- 2 0.0 2.0 11 11
- 0.647456 0 1 cbr 512 ------- 2 0.0 2.0 18 18
+ 0.65 0 1 cbr 512 ------- 2 0.0 2.0 30 30
r 0.651072 0 1 cbr 512 ------- 2 0.0 2.0 15 15
+ 0.651072 1 2 cbr 512 ------- 2 0.0 2.0 15 15
- 0.651072 1 2 cbr 512 ------- 2 0.0 2.0 15 15
r 0.654688 1 2 cbr 512 ------- 2 0.0 2.0 12 12
+ 0.655 0 1 cbr 512 ------- 2 0.0 2.0 31 31
d 0.655 0 1 cbr 512 ------- 2 0.0 2.0 31 31
- 0.655648 0 1 cbr 512 ------- 2 0.0 2.0 19 19
r 0.659264 0 1 cbr 512 ------- 2 0.0 2.0 16 16
+ 0.659264 1 2 cbr 512 ------- 2 0.0 2.0 16 16
- 0.659264 1 2 cbr 512 ------- 2 0.0 2.0 16 16
+ 0.66 0 1 cbr 512 ------- 2 0.0 2.0 32 32
r 0.66288 1 2 cbr 512 ------- 2 0.0 2.0 13 13
- 0.66384 0 1 cbr 512 ------- 2 0.0 2.0 20 20
+ 0.665 0 1 cbr 512 ------- 2 0.0 2.0 33 33
r 0.667456 0 1 cbr 512 ------- 2 0.0 2.0 17 17
+ 0.667456 1 2 cbr 512 ------- 2 0.0 2.0 17 17
- 0.667456 1 2 cbr 512 ------- 2 0.0 2.0 17 17
+ 0.67 0 1 cbr 512 ------- 2 0.0 2.0 34 34
d 0.67 0 1 cbr 512 ------- 2 0.0 2.0 34 34
r 0.671072 1 2 cbr 512 ------- 2 0.0 2.0 14 14
- 0.672032 0 1 cbr 512 ------- 2 0.0 2.0 21 21
+ 0.675 0 1 cbr 512 ------- 2 0.0 2.0 35 35
r 0.675648 0 1 cbr 512 ------- 2 0.0 2.0 18 18
+ 0.675648 1 2 cbr 512 ------- 2 0.0 2.0 18 18
- 0.675648 1 2 cbr 512 ------- 2 0.0 2.0 18 18
r 0.679264 1 2 cbr 512 ------- 2 0.0 2.0 15 15
+ 0.68 0 1 cbr 512 ------- 2 0.0 2.0 36 36
d 0.68 0 1 cbr 512 ------- 2 0.0 2.0 36 36
- 0.680224 0 1 cbr 512 ------- 2 0.0 2.0 22 22
r 0.68384 0 1 cbr 512 ------- 2 0.0 2.0 19 19
+ 0.68384 1 2 cbr 512 ------- 2 0.0 2.0 19 19
- 0.68384 1 2 cbr 512 ------- 2 0.0 2.0 19 19
+ 0.685 0 1 cbr 512 ------- 2 0.0 2.0 37 37
r 0.687456 1 2 cbr 512 ------- 2 0.0 2.0 16 16
- 0.688416 0 1 cbr 512 ------- 2 0.0 2.0 23 23
+ 0.69 0 1 cbr 512 ------- 2 0.0 2.0 38 38
r 0.692032 0 1 cbr 512 ------- 2 0.0 2.0 20 20
+ 0.692032 1 2 cbr 512 ------- 2 0.0 2.0 20 20
- 0.692032 1 2 cbr 512 ------- 2 0.0 2.0 20 20
+ 0.695 0 1 cbr 512 ------- 2 0.0 2.0 39 39
d 0.695 0 1 cbr 512 ------- 2 0.0 2.0 39 39
r 0.695648 1 2 cbr 512 ------- 2 0.0 2.0 17 17
- 0.696608 0 1 cbr 512 ------- 2 0.0 2.0 25 25
+ 0.7 0 1 cbr 512 ------- 2 0.0 2.0 40 40
r 0.700224 0 1 cbr 512 ------- 2 0.0 2.0 21 21
+ 0.700224 1 2 cbr 512 ------- 2 0.0 2.0 21 21
- 0.700224 1 2 cbr 512 ------- 2 0.0 2.0 21 21
r 0.70384 1 2 cbr 512 ------- 2 0.0 2.0 18 18
- 0.7048 0 1 cbr 512 ------- 2 0.0 2.0 27 27
+ 0.705 0 1 cbr 512 ------- 2 0.0 2.0 41 41
r 0.708416 0 1 cbr 512 ------- 2 0.0 2.0 22 22
+ 0.708416 1 2 cbr 512 ------- 2 0.0 2.0 22 22
- 0.708416 1 2 cbr 512 ------- 2 0.0 2.0 22 22
+ 0.71 0 1 cbr 512 ------- 2 0.0 2.0 42 42
d 0.71 0 1 cbr 512 ------- 2 0.0 2.0 42 42
r 0.712032 1 2 cbr 512 ------- 2 0.0 2.0 19 19
- 0.712992 0 1 cbr 512 ------- 2 0.0 2.0 28 28
+ 0.715 0 1 cbr 512 ------- 2 0.0 2.0 43 43
r 0.716608 0 1 cbr 512 ------- 2 0.0 2.0 23 23
+ 0.716608 1 2 cbr 512 ------- 2 0.0 2.0 23 23
- 0.716608 1 2 cbr 512 ------- 2 0.0 2.0 23 23
+ 0.72 0 1 cbr 512 ------- 2 0.0 2.0 44 44
d 0.72 0 1 cbr 512 ------- 2 0.0 2.0 44 44
r 0.720224 1 2 cbr 512 ------- 2 0.0 2.0 20 20
- 0.721184 0 1 cbr 512 ------- 2 0.0 2.0 30 30
r 0.7248 0 1 cbr 512 ------- 2 0.0 2.0 25 25
+ 0.7248 1 2 cbr 512 ------- 2 0.0 2.0 25 25
- 0.7248 1 2 cbr 512 ------- 2 0.0 2.0 25 25
+ 0.725 0 1 cbr 512 ------- 2 0.0 2.0 45 45
r 0.728416 1 2 cbr 512 ------- 2 0.0 2.0 21 21
- 0.729376 0 1 cbr 512 ------- 2 0.0 2.0 32 32
+ 0.73 0 1 cbr 512 ------- 2 0.0 2.0 46 46
r 0.732992 0 1 cbr 512 ------- 2 0.0 2.0 27 27
+ 0.732992 1 2 cbr 512 ------- 2 0.0 2.0 27 27
- 0.732992 1 2 cbr 512 ------- 2 0.0 2.0 27 27
+ 0.735 0 1 cbr 512 ------- 2 0.0 2.0 47 47
d 0.735 0 1 cbr 512 ------- 2 0.0 2.0 47 47
r 0.736608 1 2 cbr 512 ------- 2 0.0 2.0 22 22
- 0.737568 0 1 cbr 512 ------- 2 0.0 2.0 33 33
+ 0.74 0 1 cbr 512 ------- 2 0.0 2.0 48 48
r 0.741184 0 1 cbr 512 ------- 2 0.0 2.0 28 28
+ 0.741184 1 2 cbr 512 ------- 2 0.0 2.0 28 28
- 0.741184 1 2 cbr 512 ------- 2 0.0 2.0 28 28
r 0.7448 1 2 cbr 512 ------- 2 0.0 2.0 23 23
+ 0.745 0 1 cbr 512 ------- 2 0.0 2.0 49 49
d 0.745 0 1 cbr 512 ------- 2 0.0 2.0 49 49
- 0.74576 0 1 cbr 512 ------- 2 0.0 2.0 35 35
r 0.749376 0 1 cbr 512 ------- 2 0.0 2.0 30 30
+ 0.749376 1 2 cbr 512 ------- 2 0.0 2.0 30 30
- 0.749376 1 2 cbr 512 ------- 2 0.0 2.0 30 30
+ 0.75 0 1 cbr 512 ------- 2 0.0 2.0 50 50
r 0.752992 1 2 cbr 512 ------- 2 0.0 2.0 25 25
- 0.753952 0 1 cbr 512 ------- 2 0.0 2.0 37 37
+ 0.755 0 1 cbr 512 ------- 2 0.0 2.0 51 51
r 0.757568 0 1 cbr 512 ------- 2 0.0 2.0 32 32
+ 0.757568 1 2 cbr 512 ------- 2 0.0 2.0 32 32
- 0.757568 1 2 cbr 512 ------- 2 0.0 2.0 32 32
+ 0.76 0 1 cbr 512 ------- 2 0.0 2.0 52 52
d 0.76 0 1 cbr 512 ------- 2 0.0 2.0 52 52
r 0.761184 1 2 cbr 512 ------- 2 0.0 2.0 27 27
- 0.762144 0 1 cbr 512 ------- 2 0.0 2.0 38 38
+ 0.765 0 1 cbr 512 ------- 2 0.0 2.0 53 53
r 0.76576 0 1 cbr 512 ------- 2 0.0 2.0 33 33
+ 0.76576 1 2 cbr 512 ------- 2 0.0 2.0 33 33
- 0.76576 1 2 cbr 512 ------- 2 0.0 2.0 33 33
r 0.769376 1 2 cbr 512 ------- 2 0.0 2.0 28 28
+ 0.77 0 1 cbr 512 ------- 2 0.0 2.0 54 54
d 0.77 0 1 cbr 512 ------- 2 0.0 2.0 54 54
- 0.770336 0 1 cbr 512 ------- 2 0.0 2.0 40 40
r 0.773952 0 1 cbr 512 ------- 2 0.0 2.0 35 35
+ 0.773952 1 2 cbr 512 ------- 2 0.0 2.0 35 35
- 0.773952 1 2 cbr 512 ------- 2 0.0 2.0 35 35
+ 0.775 0 1 cbr 512 ------- 2 0.0 2.0 55 55
r 0.777568 1 2 cbr 512 ------- 2 0.0 2.0 30 30
- 0.778528 0 1 cbr 512 ------- 2 0.0 2.0 41 41
+ 0.78 0 1 cbr 512 ------- 2 0.0 2.0 56 56
r 0.782144 0 1 cbr 512 ------- 2 0.0 2.0 37 37
+ 0.782144 1 2 cbr 512 ------- 2 0.0 2.0 37 37
- 0.782144 1 2 cbr 512 ------- 2 0.0 2.0 37 37
+ 0.785 0 1 cbr 512 ------- 2 0.0 2.0 57 57
d 0.785 0 1 cbr 512 ------- 2 0.0 2.0 57 57
r 0.78576 1 2 cbr 512 ------- 2 0.0 2.0 32 32
- 0.78672 0 1 cbr 512 ------- 2 0.0 2.0 43 43
+ 0.79 0 1 cbr 512 ------- 2 0.0 2.0 58 58
r 0.790336 0 1 cbr 512 ------- 2 0.0 2.0 38 38
+ 0.790336 1 2 cbr 512 ------- 2 0.0 2.0 38 38
- 0.790336 1 2 cbr 512 ------- 2 0.0 2.0 38 38
r 0.793952 1 2 cbr 512 ------- 2 0.0 2.0 33 33
- 0.794912 0 1 cbr 512 ------- 2 0.0 2.0 45 45
+ 0.795 0 1 cbr 512 ------- 2 0.0 2.0 59 59
r 0.798528 0 1 cbr 512 ------- 2 0.0 2.0 40 40
+ 0.798528 1 2 cbr 512 ------- 2 0.0 2.0 40 40
- 0.798528 1 2 cbr 512 ------- 2 0.0 2.0 40 40
+ 0.8 0 1 cbr 512 ------- 2 0.0 2.0 60 60
d 0.8 0 1 cbr 512 ------- 2 0.0 2.0 60 60
r 0.802144 1 2 cbr 512 ------- 2 0.0 2.0 35 35
- 0.803104 0 1 cbr 512 ------- 2 0.0 2.0 46 46
+ 0.805 0 1 cbr 512 ------- 2 0.0 2.0 61 61
r 0.80672 0 1 cbr 512 ------- 2 0.0 2.0 41 41
+ 0.80672 1 2 cbr 512 ------- 2 0.0 2.0 41 41
- 0.80672 1 2 cbr 512 ------- 2 0.0 2.0 41 41
+ 0.81 0 1 cbr 512 ------- 2 0.0 2.0 62 62
d 0.81 0 1 cbr 512 ------- 2 0.0 2.0 62 62
r 0.810336 1 2 cbr 512 ------- 2 0.0 2.0 37 37
- 0.811296 0 1 cbr 512 ------- 2 0.0 2.0 48 48
r 0.814912 0 1 cbr 512 ------- 2 0.0 2.0 43 43
+ 0.814912 1 2 cbr 512 ------- 2 0.0 2.0 43 43
- 0.814912 1 2 cbr 512 ------- 2 0.0 2.0 43 43
+ 0.815 0 1 cbr 512 ------- 2 0.0 2.0 63 63
r 0.818528 1 2 cbr 512 ------- 2 0.0 2.0 38 38
- 0.819488 0 1 cbr 512 ------- 2 0.0 2.0 50 50
+ 0.82 0 1 cbr 512 ------- 2 0.0 2.0 64 64
r 0.823104 0 1 cbr 512 ------- 2 0.0 2.0 45 45
+ 0.823104 1 2 cbr 512 ------- 2 0.0 2.0 45 45
- 0.823104 1 2 cbr 512 ------- 2 0.0 2.0 45 45
+ 0.825 0 1 cbr 512 ------- 2 0.0 2.0 65 65
d 0.825 0 1 cbr 512 ------- 2 0.0 2.0 65 65
r 0.82672 1 2 cbr 512 ------- 2 0.0 2.0 40 40
- 0.82768 0 1 cbr 512 ------- 2 0.0 2.0 51 51
+ 0.83 0 1 cbr 512 ------- 2 0.0 2.0 66 66
r 0.831296 0 1 cbr 512 ------- 2 0.0 2.0 46 46
+ 0.831296 1 2 cbr 512 ------- 2 0.0 2.0 46 46
- 0.831296 1 2 cbr 512 ------- 2 0.0 2.0 46 46
r 0.834912 1 2 cbr 512 ------- 2 0.0 2.0 41 41
+ 0.835 0 1 cbr 512 ------- 2 0.0 2.0 67 67
d 0.835 0 1 cbr 512 ------- 2 0.0 2.0 67 67
- 0.835872 0 1 cbr 512 ------- 2 0.0 2.0 53 53
r 0.839488 0 1 cbr 512 ------- 2 0.0 2.0 48 48
+ 0.839488 1 2 cbr 512 ------- 2 0.0 2.0 48 48
- 0.839488 1 2 cbr 512 ------- 2 0.0 2.0 48 48
+ 0.84 0 1 cbr 512 ------- 2 0.0 2.0 68 68
r 0.843104 1 2 cbr 512 ------- 2 0.0 2.0 43 43
- 0.844064 0 1 cbr 512 ------- 2 0.0 2.0 55 55
+ 0.845 0 1 cbr 512 ------- 2 0.0 2.0 69 69
r 0.84768 0 1 cbr 512 ------- 2 0.0 2.0 50 50
+ 0.84768 1 2 cbr 512 ------- 2 0.0 2.0 50 50
- 0.84768 1 2 cbr 512 ------- 2 0.0 2.0 50 50
+ 0.85 0 1 cbr 512 ------- 2 0.0 2.0 70 70
d 0.85 0 1 cbr 512 ------- 2 0.0 2.0 70 70
r 0.851296 1 2 cbr 512 ------- 2 0.0 2.0 45 45
- 0.852256 0 1 cbr 512 ------- 2 0.0 2.0 56 56
+ 0.855 0 1 cbr 512 ------- 2 0.0 2.0 71 71
r 0.855872 0 1 cbr 512 ------- 2 0.0 2.0 51 51
+ 0.855872 1 2 cbr 512 ------- 2 0.0 2.0 51 51
- 0.855872 1 2 cbr 512 ------- 2 0.0 2.0 51 51
r 0.859488 1 2 cbr 512 ------- 2 0.0 2.0 46 46
+ 0.86 0 1 cbr 512 ------- 2 0.0 2.0 72 72
d 0.86 0 1 cbr 512 ------- 2 0.0 2.0 72 72
- 0.860448 0 1 cbr 512 ------- 2 0.0 2.0 58 58
r 0.864064 0 1 cbr 512 ------- 2 0.0 2.0 53 53
+ 0.864064 1 2 cbr 512 ------- 2 0.0 2.0 53 53
- 0.864064 1 2 cbr 512 ------- 2 0.0 2.0 53 53
+ 0.865 0 1 cbr 512 ------- 2 0.0 2.0 73 73
r 0.86768 1 2 cbr 512 ------- 2 0.0 2.0 48 48
- 0.86864 0 1 cbr 512 ------- 2 0.0 2.0 59 59
+ 0.87 0 1 cbr 512 ------- 2 0.0 2.0 74 74
r 0.872256 0 1 cbr 512 ------- 2 0.0 2.0 55 55
+ 0.872256 1 2 cbr 512 ------- 2 0.0 2.0 55 55
- 0.872256 1 2 cbr 512 ------- 2 0.0 2.0 55 55
+ 0.875 0 1 cbr 512 ------- 2 0.0 2.0 75 75
d 0.875 0 1 cbr 512 ------- 2 0.0 2.0 75 75
r 0.875872 1 2 cbr 512 ------- 2 0.0 2.0 50 50
- 0.876832 0 1 cbr 512 ------- 2 0.0 2.0 61 61
+ 0.88 0 1 cbr 512 ------- 2 0.0 2.0 76 76
r 0.880448 0 1 cbr 512 ------- 2 0.0 2.0 56 56
+ 0.880448 1 2 cbr 512 ------- 2 0.0 2.0 56 56
- 0.880448 1 2 cbr 512 ------- 2 0.0 2.0 56 56
r 0.884064 1 2 cbr 512 ------- 2 0.0 2.0 51 51
+ 0.885 0 1 cbr 512 ------- 2 0.0 2.0 77 77
d 0.885 0 1 cbr 512 ------- 2 0.0 2.0 77 77
- 0.885024 0 1 cbr 512 ------- 2 0.0 2.0 63 63
r 0.88864 0 1 cbr 512 ------- 2 0.0 2.0 58 58
+ 0.88864 1 2 cbr 512 ------- 2 0.0 2.0 58 58
- 0.88864 1 2 cbr 512 ------- 2 0.0 2.0 58 58
+ 0.89 0 1 cbr 512 ------- 2 0.0 2.0 78 78
r 0.892256 1 2 cbr 512 ------- 2 0.0 2.0 53 53
- 0.893216 0 1 cbr 512 ------- 2 0.0 2.0 64 64
+ 0.895 0 1 cbr 512 ------- 2 0.0 2.0 79 79
r 0.896832 0 1 cbr 512 ------- 2 0.0 2.0 59 59
+ 0.896832 1 2 cbr 512 ------- 2 0.0 2.0 59 59
- 0.896832 1 2 cbr 512 ------- 2 0.0 2.0 59 59
+ 0.9 0 1 cbr 512 ------- 2 0.0 2.0 80 80
d 0.9 0 1 cbr 512 ------- 2 0.0 2.0 80 80
r 0.900448 1 2 cbr 512 ------- 2 0.0 2.0 55 55
- 0.901408 0 1 cbr 512 ------- 2 0.0 2.0 66 66
+ 0.905 0 1 cbr 512 ------- 2 0.0 2.0 81 81
r 0.905024 0 1 cbr 512 ------- 2 0.0 2.0 61 61
+ 0.905024 1 2 cbr 512 ------- 2 0.0 2.0 61 61
- 0.905024 1 2 cbr 512 ------- 2 0.0 2.0 61 61
r 0.90864 1 2 cbr 512 ------- 2 0.0 2.0 56 56
- 0.9096 0 1 cbr 512 ------- 2 0.0 2.0 68 68
+ 0.91 0 1 cbr 512 ------- 2 0.0 2.0 82 82
r 0.913216 0 1 cbr 512 ------- 2 0.0 2.0 63 63
+ 0.913216 1 2 cbr 512 ------- 2 0.0 2.0 63 63
- 0.913216 1 2 cbr 512 ------- 2 0.0 2.0 63 63
+ 0.915 0 1 cbr 512 ------- 2 0.0 2.0 83 83
d 0.915 0 1 cbr 512 ------- 2 0.0 2.0 83 83
r 0.916832 1 2 cbr 512 ------- 2 0.0 2.0 58 58
- 0.917792 0 1 cbr 512 ------- 2 0.0 2.0 69 69
+ 0.92 0 1 cbr 512 ------- 2 0.0 2.0 84 84
r 0.921408 0 1 cbr 512 ------- 2 0.0 2.0 64 64
+ 0.921408 1 2 cbr 512 ------- 2 0.0 2.0 64 64
- 0.921408 1 2 cbr 512 ------- 2 0.0 2.0 64 64
+ 0.925 0 1 cbr 512 ------- 2 0.0 2.0 85 85
d 0.925 0 1 cbr 512 ------- 2 0.0 2.0 85 85
r 0.925024 1 2 cbr 512 ------- 2 0.0 2.0 59 59
- 0.925984 0 1 cbr 512 ------- 2 0.0 2.0 71 71
r 0.9296 0 1 cbr 512 ------- 2 0.0 2.0 66 66
+ 0.9296 1 2 cbr 512 ------- 2 0.0 2.0 66 66
- 0.9296 1 2 cbr 512 ------- 2 0.0 2.0 66 66
+ 0.93 0 1 cbr 512 ------- 2 0.0 2.0 86 86
r 0.933216 1 2 cbr 512 ------- 2 0.0 2.0 61 61
- 0.934176 0 1 cbr 512 ------- 2 0.0 2.0 73 73
+ 0.935 0 1 cbr 512 ------- 2 0.0 2.0 87 87
r 0.937792 0 1 cbr 512 ------- 2 0.0 2.0 68 68
+ 0.937792 1 2 cbr 512 ------- 2 0.0 2.0 68 68
- 0.937792 1 2 cbr 512 ------- 2 0.0 2.0 68 68
+ 0.94 0 1 cbr 512 ------- 2 0.0 2.0 88 88
d 0.94 0 1 cbr 512 ------- 2 0.0 2.0 88 88
r 0.941408 1 2 cbr 512 ------- 2 0.0 2.0 63 63
- 0.942368 0 1 cbr 512 ------- 2 0.0 2.0 74 74
+ 0.945 0 1 cbr 512 ------- 2 0.0 2.0 89 89
r 0.945984 0 1 cbr 512 ------- 2 0.0 2.0 69 69
+ 0.945984 1 2 cbr 512 ------- 2 0.0 2.0 69 69
- 0.945984 1 2 cbr 512 ------- 2 0.0 2.0 69 69
r 0.9496 1 2 cbr 512 ------- 2 0.0 2.0 64 64
+ 0.95 0 1 cbr 512 ------- 2 0.0 2.0 90 90
d 0.95 0 1 cbr 512 ------- 2 0.0 2.0 90 90
- 0.95056 0 1 cbr 512 ------- 2 0.0 2.0 76 76
r 0.954176 0 1 cbr 512 ------- 2 0.0 2.0 71 71
+ 0.954176 1 2 cbr 512 ------- 2 0.0 2.0 71 71
- 0.954176 1 2 cbr 512 ------- 2 0.0 2.0 71 71
+ 0.955 0 1 cbr 512 ------- 2 0.0 2.0 91 91
r 0.957792 1 2 cbr 512 ------- 2 0.0 2.0 66 66
- 0.958752 0 1 cbr 512 ------- 2 0.0 2.0 78 78
+ 0.96 0 1 cbr 512 ------- 2 0.0 2.0 92 92
r 0.962368 0 1 cbr 512 ------- 2 0.0 2.0 73 73
+ 0.962368 1 2 cbr 512 ------- 2 0.0 2.0 73 73
- 0.962368 1 2 cbr 512 ------- 2 0.0 2.0 73 73
+ 0.965 0 1 cbr 512 ------- 2 0.0 2.0 93 93
d 0.965 0 1 cbr 512 ------- 2 0.0 2.0 93 93
r 0.965984 1 2 cbr 512 ------- 2 0.0 2.0 68 68
- 0.966944 0 1 cbr 512 ------- 2 0.0 2.0 79 79
+ 0.97 0 1 cbr 512 ------- 2 0.0 2.0 94 94
r 0.97056 0 1 cbr 512 ------- 2 0.0 2.0 74 74
+ 0.97056 1 2 cbr 512 ------- 2 0.0 2.0 74 74
- 0.97056 1 2 cbr 512 ------- 2 0.0 2.0 74 74
r 0.974176 1 2 cbr 512 ------- 2 0.0 2.0 69 69
+ 0.975 0 1 cbr 512 ------- 2 0.0 2.0 95 95
d 0.975 0 1 cbr 512 ------- 2 0.0 2.0 95 95
- 0.975136 0 1 cbr 512 ------- 2 0.0 2.0 81 81
r 0.978752 0 1 cbr 512 ------- 2 0.0 2.0 76 76
+ 0.978752 1 2 cbr 512 ------- 2 0.0 2.0 76 76
- 0.978752 1 2 cbr 512 ------- 2 0.0 2.0 76 76
+ 0.98 0 1 cbr 512 ------- 2 0.0 2.0 96 96
r 0.982368 1 2 cbr 512 ------- 2 0.0 2.0 71 71
- 0.983328 0 1 cbr 512 ------- 2 0.0 2.0 82 82
+ 0.985 0 1 cbr 512 ------- 2 0.0 2.0 97 97
r 0.986944 0 1 cbr 512 ------- 2 0.0 2.0 78 78
+ 0.986944 1 2 cbr 512 ------- 2 0.0 2.0 78 78
- 0.986944 1 2 cbr 512 ------- 2 0.0 2.0 78 78
+ 0.99 0 1 cbr 512 ------- 2 0.0 2.0 98 98
d 0.99 0 1 cbr 512 ------- 2 0.0 2.0 98 98
r 0.99056 1 2 cbr 512 ------- 2 0.0 2.0 73 73
- 0.99152 0 1 cbr 512 ------- 2 0.0 2.0 84 84
+ 0.995 0 1 cbr 512 ------- 2 0.0 2.0 99 99
r 0.995136 0 1 cbr 512 ------- 2 0.0 2.0 79 79
+ 0.995136 1 2 cbr 512 ------- 2 0.0 2.0 79 79
- 0.995136 1 2 cbr 512 ------- 2 0.0 2.0 79 79
r 0.998752 1 2 cbr 512 ------- 2 0.0 2.0 74 74
- 0.999712 0 1 cbr 512 ------- 2 0.0 2.0 86 86
+ 1 0 1 cbr 512 ------- 2 0.0 2.0 100 100
r 1.003328 0 1 cbr 512 ------- 2 0.0 2.0 81 81
+ 1.003328 1 2 cbr 512 ------- 2 0.0 2.0 81 81
- 1.003328 1 2 cbr 512 ------- 2 0.0 2.0 81 81
+ 1.005 0 1 cbr 512 ------- 2 0.0 2.0 101 101
d 1.005 0 1 cbr 512 ------- 2 0.0 2.0 101 101
r 1.006944 1 2 cbr 512 ------- 2 0.0 2.0 76 76
- 1.007904 0 1 cbr 512 ------- 2 0.0 2.0 87 87
+ 1.01 0 1 cbr 512 ------- 2 0.0 2.0 102 102
r 1.01152 0 1 cbr 512 ------- 2 0.0 2.0 82 82
+ 1.01152 1 2 cbr 512 ------- 2 0.0 2.0 82 82
- 1.01152 1 2 cbr 512 ------- 2 0.0 2.0 82 82
+ 1.015 0 1 cbr 512 ------- 2 0.0 2.0 103 103
d 1.015 0 1 cbr 512 ------- 2 0.0 2.0 103 103
r 1.015136 1 2 cbr 512 ------- 2 0.0 2.0 78 78
- 1.016096 0 1 cbr 512 ------- 2 0.0 2.0 89 89
r 1.019712 0 1 cbr 512 ------- 2 0.0 2.0 84 84
+ 1.019712 1 2 cbr 512 ------- 2 0.0 2.0 84 84
- 1.019712 1 2 cbr 512 ------- 2 0.0 2.0 84 84
+ 1.02 0 1 cbr 512 ------- 2 0.0 2.0 104 104
r 1.023328 1 2 cbr 512 ------- 2 0.0 2.0 79 79
- 1.024288 0 1 cbr 512 ------- 2 0.0 2.0 91 91
+ 1.025 0 1 cbr 512 ------- 2 0.0 2.0 105 105
r 1.027904 0 1 cbr 512 ------- 2 0.0 2.0 86 86
+ 1.027904 1 2 cbr 512 ------- 2 0.0 2.0 86 86
- 1.027904 1 2 cbr 512 ------- 2 0.0 2.0 86 86
+ 1.03 0 1 cbr 512 ------- 2 0.0 2.0 106 106
d 1.03 0 1 cbr 512 ------- 2 0.0 2.0 106 106
r 1.03152 1 2 cbr 512 ------- 2 0.0 2.0 81 81
- 1.03248 0 1 cbr 512 ------- 2 0.0 2.0 92 92
+ 1.035 0 1 cbr 512 ------- 2 0.0 2.0 107 107
r 1.036096 0 1 cbr 512 ------- 2 0.0 2.0 87 87
+ 1.036096 1 2 cbr 512 ------- 2 0.0 2.0 87 87
- 1.036096 1 2 cbr 512 ------- 2 0.0 2.0 87 87
r 1.039712 1 2 cbr 512 ------- 2 0.0 2.0 82 82
+ 1.04 0 1 cbr 512 ------- 2 0.0 2.0 108 108
d 1.04 0 1 cbr 512 ------- 2 0.0 2.0 108 108
- 1.040672 0 1 cbr 512 ------- 2 0.0 2.0 94 94
r 1.044288 0 1 cbr 512 ------- 2 0.0 2.0 89 89
+ 1.044288 1 2 cbr 512 ------- 2 0.0 2.0 89 89
- 1.044288 1 2 cbr 512 ------- 2 0.0 2.0 89 89
+ 1.045 0 1 cbr 512 ------- 2 0.0 2.0 109 109
r 1.047904 1 2 cbr 512 ------- 2 0.0 2.0 84 84
- 1.048864 0 1 cbr 512 ------- 2 0.0 2.0 96 96
+ 1.05 0 1 cbr 512 ------- 2 0.0 2.0 110 110
r 1.05248 0 1 cbr 512 ------- 2 0.0 2.0 91 91
+ 1.05248 1 2 cbr 512 ------- 2 0.0 2.0 91 91
- 1.05248 1 2 cbr 512 ------- 2 0.0 2.0 91 91
+ 1.055 0 1 cbr 512 ------- 2 0.0 2.0 111 111
d 1.055 0 1 cbr 512 ------- 2 0.0 2.0 111 111
r 1.056096 1 2 cbr 512 ------- 2 0.0 2.0 86 86
- 1.057056 0 1 cbr 512 ------- 2 0.0 2.0 97 97
+ 1.06 0 1 cbr 512 ------- 2 0.0 2.0 112 112
r 1.060672 0 1 cbr 512 ------- 2 0.0 2.0 92 92
+ 1.060672 1 2 cbr 512 ------- 2 0.0 2.0 92 92
- 1.060672 1 2 cbr 512 ------- 2 0.0 2.0 92 92
r 1.064288 1 2 cbr 512 ------- 2 0.0 2.0 87 87
+ 1.065 0 1 cbr 512 ------- 2 0.0 2.0 113 113
d 1.065 0 1 cbr 512 ------- 2 0.0 2.0 113 113
- 1.065248 0 1 cbr 512 ------- 2 0.0 2.0 99 99
r 1.068864 0 1 cbr 512 ------- 2 0.0 2.0 94 94
+ 1.068864 1 2 cbr 512 ------- 2 0.0 2.0 94 94
- 1.068864 1 2 cbr 512 ------- 2 0.0 2.0 94 94
+ 1.07 0 1 cbr 512 ------- 2 0.0 2.0 114 114
r 1.07248 1 2 cbr 512 ------- 2 0.0 2.0 89 89
- 1.07344 0 1 cbr 512 ------- 2 0.0 2.0 100 100
+ 1.075 0 1 cbr 512 ------- 2 0.0 2.0 115 115
r 1.077056 0 1 cbr 512 ------- 2 0.0 2.0 96 96
+ 1.077056 1 2 cbr 512 ------- 2 0.0 2.0 96 96
- 1.077056 1 2 cbr 512 ------- 2 0.0 2.0 96 96
+ 1.08 0 1 cbr 512 ------- 2 0.0 2.0 116 116
d 1.08 0 1 cbr 512 ------- 2 0.0 2.0 116 116
r 1.080672 1 2 cbr 512 ------- 2 0.0 2.0 91 91
- 1.081632 0 1 cbr 512 ------- 2 0.0 2.0 102 102
+ 1.085 0 1 cbr 512 ------- 2 0.0 2.0 117 117
r 1.085248 0 1 cbr 512 ------- 2 0.0 2.0 97 97
+ 1.085248 1 2 cbr 512 ------- 2 0.0 2.0 97 97
- 1.085248 1 2 cbr 512 ------- 2 0.0 2.0 97 97
r 1.088864 1 2 cbr 512 ------- 2 0.0 2.0 92 92
- 1.089824 0 1 cbr 512 ------- 2 0.0 2.0 104 104
+ 1.09 0 1 cbr 512 ------- 2 0.0 2.0 118 118
r 1.09344 0 1 cbr 512 ------- 2 0.0 2.0 99 99
+ 1.09344 1 2 cbr 512 ------- 2 0.0 2.0 99 99
- 1.09344 1 2 cbr 512 ------- 2 0.0 2.0 99 99
+ 1.095 0 1 cbr 512 ------- 2 0.0 2.0 119 119
d 1.095 0 1 cbr 512 ------- 2 0.0 2.0 119 119
r 1.097056 1 2 cbr 512 ------- 2 0.0 2.0 94 94
- 1.098016 0 1 cbr 512 ------- 2 0.0 2.0 105 105
+ 1.1 0 1 cbr 512 ------- 2 0.0 2.0 120 120
r 1.101632 0 1 cbr 512 ------- 2 0.0 2.0 100 100
+ 1.101632 1 2 cbr 512 ------- 2 0.0 2.0 100 100
- 1.101632 1 2 cbr 512 ------- 2 0.0 2.0 100 100
+ 1.105 0 1 cbr 512 ------- 2 0.0 2.0 121 121
d 1.105 0 1 cbr 512 ------- 2 0.0 2.0 121 121
r 1.105248 1 2 cbr 512 ------- 2 0.0 2.0 96 96
- 1.106208 0 1 cbr 512 ------- 2 0.0 2.0 107 107
r 1.109824 0 1 cbr 512 ------- 2 0.0 2.0 102 102
+ 1.109824 1 2 cbr 512 ------- 2 0.0 2.0 102 102
- 1.109824 1 2 cbr 512 ------- 2 0.0 2.0 102 102
+ 1.11 0 1 cbr 512 ------- 2 0.0 2.0 122 122
r 1.11344 1 2 cbr 512 ------- 2 0.0 2.0 97 97
- 1.1144 0 1 cbr 512 ------- 2 0.0 2.0 109 109
+ 1.115 0 1 cbr 512 ------- 2 0.0 2.0 123 123
r 1.118016 0 1 cbr 512 ------- 2 0.0 2.0 104 104
+ 1.118016 1 2 cbr 512 ------- 2 0.0 2.0 104 104
- 1.118016 1 2 cbr 512 ------- 2 0.0 2.0 104 104
+ 1.12 0 1 cbr 512 ------- 2 0.0 2.0 124 124
d 1.12 0 1 cbr 512 ------- 2 0.0 2.0 124 124
r 1.121632 1 2 cbr 512 ------- 2 0.0 2.0 99 99
- 1.122592 0 1 cbr 512 ------- 2 0.0 2.0 110 110
+ 1.125 0 1 cbr 512 ------- 2 0.0 2.0 125 125
r 1.126208 0 1 cbr 512 ------- 2 0.0 2.0 105 105
+ 1.126208 1 2 cbr 512 ------- 2 0.0 2.0 105 105
- 1.126208 1 2 cbr 512 ------- 2 0.0 2.0 105 105
r 1.129824 1 2 cbr 512 ------- 2 0.0 2.0 100 100
+ 1.13 0 1 cbr 512 ------- 2 0.0 2.0 126 126
d 1.13 0 1 cbr 512 ------- 2 0.0 2.0 126 126
- 1.130784 0 1 cbr 512 ------- 2 0.0 2.0 112 112
r 1.1344 0 1 cbr 512 ------- 2 0.0 2.0 107 107
+ 1.1344 1 2 cbr 512 ------- 2 0.0 2.0 107 107
- 1.1344 1 2 cbr 512 ------- 2 0.0 2.0 107 107
+ 1.135 0 1 cbr 512 ------- 2 0.0 2.0 127 127
r 1.138016 1 2 cbr 512 ------- 2 0.0 2.0 102 102
- 1.138976 0 1 cbr 512 ------- 2 0.0 2.0 114 114
+ 1.14 0 1 cbr 512 ------- 2 0.0 2.0 128 128
r 1.142592 0 1 cbr 512 ------- 2 0.0 2.0 109 109
+ 1.142592 1 2 cbr 512 ------- 2 0.0 2.0 109 109
- 1.142592 1 2 cbr 512 ------- 2 0.0 2.0 109 109
+ 1.145 0 1 cbr 512 ------- 2 0.0 2.0 129 129
d 1.145 0 1 cbr 512 ------- 2 0.0 2.0 129 129
r 1.146208 1 2 cbr 512 ------- 2 0.0 2.0 104 104
- 1.147168 0 1 cbr 512 ------- 2 0.0 2.0 115 115
+ 1.15 0 1 cbr 512 ------- 2 0.0 2.0 130 130
r 1.150784 0 1 cbr 512 ------- 2 0.0 2.0 110 110
+ 1.150784 1 2 cbr 512 ------- 2 0.0 2.0 110 110
- 1.150784 1 2 cbr 512 ------- 2 0.0 2.0 110 110
r 1.1544 1 2 cbr 512 ------- 2 0.0 2.0 105 105
+ 1.155 0 1 cbr 512 ------- 2 0.0 2.0 131 131
d 1.155 0 1 cbr 512 ------- 2 0.0 2.0 131 131
- 1.15536 0 1 cbr 512 ------- 2 0.0 2.0 117 117
r 1.158976 0 1 cbr 512 ------- 2 0.0 2.0 112 112
+ 1.158976 1 2 cbr 512 ------- 2 0.0 2.0 112 112
- 1.158976 1 2 cbr 512 ------- 2 0.0 2.0 112 112
+ 1.16 0 1 cbr 512 ------- 2 0.0 2.0 132 132
r 1.162592 1 2 cbr 512 ------- 2 0.0 2.0 107 107
- 1.163552 0 1 cbr 512 ------- 2 0.0 2.0 118 118
+ 1.165 0 1 cbr 512 ------- 2 0.0 2.0 133 133
r 1.167168 0 1 cbr 512 ------- 2 0.0 2.0 114 114
+ 1.167168 1 2 cbr 512 ------- 2 0.0 2.0 114 114
- 1.167168 1 2 cbr 512 ------- 2 0.0 2.0 114 114
+ 1.17 0 1 cbr 512 ------- 2 0.0 2.0 134 134
d 1.17 0 1 cbr 512 ------- 2 0.0 2.0 134 134
r 1.170784 1 2 cbr 512 ------- 2 0.0 2.0 109 109
- 1.171744 0 1 cbr 512 ------- 2 0.0 2.0 120 120
+ 1.175 0 1 cbr 512 ------- 2 0.0 2.0 135 135
r 1.17536 0 1 cbr 512 ------- 2 0.0 2.0 115 115
+ 1.17536 1 2 cbr 512 ------- 2 0.0 2.0 115 115
- 1.17536 1 2 cbr 512 ------- 2 0.0 2.0 115 115
r 1.178976 1 2 cbr 512 ------- 2 0.0 2.0 110 110
- 1.179936 0 1 cbr 512 ------- 2 0.0 2.0 122 122
+ 1.18 0 1 cbr 512 ------- 2 0.0 2.0 136 136
r 1.183552 0 1 cbr 512 ------- 2 0.0 2.0 117 117
+ 1.183552 1 2 cbr 512 ------- 2 0.0 2.0 117 117
- 1.183552 1 2 cbr 512 ------- 2 0.0 2.0 117 117
+ 1.185 0 1 cbr 512 ------- 2 0.0 2.0 137 137
d 1.185 0 1 cbr 512 ------- 2 0.0 2.0 137 137
r 1.187168 1 2 cbr 512 ------- 2 0.0 2.0 112 112
- 1.188128 0 1 cbr 512 ------- 2 0.0 2.0 123 123
+ 1.19 0 1 cbr 512 ------- 2 0.0 2.0 138 138
r 1.191744 0 1 cbr 512 ------- 2 0.0 2.0 118 118
+ 1.191744 1 2 cbr 512 ------- 2 0.0 2.0 118 118
- 1.191744 1 2 cbr 512 ------- 2 0.0 2.0 118 118
+ 1.195 0 1 cbr 512 ------- 2 0.0 2.0 139 139
d 1.195 0 1 cbr 512 ------- 2 0.0 2.0 139 139
r 1.19536 1 2 cbr 512 ------- 2 0.0 2.0 114 114
- 1.19632 0 1 cbr 512 ------- 2 0.0 2.0 125 125
r 1.199936 0 1 cbr 512 ------- 2 0.0 2.0 120 120
+ 1.199936 1 2 cbr 512 ------- 2 0.0 2.0 120 120
- 1.199936 1 2 cbr 512 ------- 2 0.0 2.0 120 120
+ 1.2 0 1 cbr 512 ------- 2 0.0 2.0 140 140
r 1.203552 1 2 cbr 512 ------- 2 0.0 2.0 115 115
- 1.204512 0 1 cbr 512 ------- 2 0.0 2.0 127 127
+ 1.205 0 1 cbr 512 ------- 2 0.0 2.0 141 141
r 1.208128 0 1 cbr 512 ------- 2 0.0 2.0 122 122
+ 1.208128 1 2 cbr 512 ------- 2 0.0 2.0 122 122
- 1.208128 1 2 cbr 512 ------- 2 0.0 2.0 122 122
+ 1.21 0 1 cbr 512 ------- 2 0.0 2.0 142 142
d 1.21 0 1 cbr 512 ------- 2 0.0 2.0 142 142
r 1.211744 1 2 cbr 512 ------- 2 0.0 2.0 117 117
- 1.212704 0 1 cbr 512 ------- 2 0.0 2.0 128 128
+ 1.215 0 1 cbr 512 ------- 2 0.0 2.0 143 143
r 1.21632 0 1 cbr 512 ------- 2 0.0 2.0 123 123
+ 1.21632 1 2 cbr 512 ------- 2 0.0 2.0 123 123
- 1.21632 1 2 cbr 512 ------- 2 0.0 2.0 123 123
r 1.219936 1 2 cbr 512 ------- 2 0.0 2.0 118 118
+ 1.22 0 1 cbr 512 ------- 2 0.0 2.0 144 144
d 1.22 0 1 cbr 512 ------- 2 0.0 2.0 144 144
- 1.220896 0 1 cbr 512 ------- 2 0.0 2.0 130 130
r 1.224512 0 1 cbr 512 ------- 2 0.0 2.0 125 125
+ 1.224512 1 2 cbr 512 ------- 2 0.0 2.0 125 125
- 1.224512 1 2 cbr 512 ------- 2 0.0 2.0 125 125
+ 1.225 0 1 cbr 512 ------- 2 0.0 2.0 145 145
r 1.228128 1 2 cbr 512 ------- 2 0.0 2.0 120 120
- 1.229088 0 1 cbr 512 ------- 2 0.0 2.0 132 132
+ 1.23 0 1 cbr 512 ------- 2 0.0 2.0 146 146
r 1.232704 0 1 cbr 512 ------- 2 0.0 2.0 127 127
+ 1.232704 1 2 cbr 512 ------- 2 0.0 2.0 127 127
- 1.232704 1 2 cbr 512 ------- 2 0.0 2.0 127 127
+ 1.235 0 1 cbr 512 ------- 2 0.0 2.0 147 147
d 1.235 0 1 cbr 512 ------- 2 0.0 2.0 147 147
r 1.23632 1 2 cbr 512 ------- 2 0.0 2.0 122 122
- 1.23728 0 1 cbr 512 ------- 2 0.0 2.0 133 133
+ 1.24 0 1 cbr 512 ------- 2 0.0 2.0 148 148
r 1.240896 0 1 cbr 512 ------- 2 0.0 2.0 128 128
+ 1.240896 1 2 cbr 512 ------- 2 0.0 2.0 128 128
- 1.240896 1 2 cbr 512 ------- 2 0.0 2.0 128 128
r 1.244512 1 2 cbr 512 ------- 2 0.0 2.0 123 123
+ 1.245 0 1 cbr 512 ------- 2 0.0 2.0 149 149
d 1.245 0 1 cbr 512 ------- 2 0.0 2.0 149 149
- 1.245472 0 1 cbr 512 ------- 2 0.0 2.0 135 135
r 1.249088 0 1 cbr 512 ------- 2 0.0 2.0 130 130
+ 1.249088 1 2 cbr 512 ------- 2 0.0 2.0 130 130
- 1.249088 1 2 cbr 512 ------- 2 0.0 2.0 130 130
+ 1.25 0 1 cbr 512 ------- 2 0.0 2.0 150 150
r 1.252704 1 2 cbr 512 ------- 2 0.0 2.0 125 125
- 1.253664 0 1 cbr 512 ------- 2 0.0 2.0 136 136
+ 1.255 0 1 cbr 512 ------- 2 0.0 2.0 151 151
r 1.25728 0 1 cbr 512 ------- 2 0.0 2.0 132 132
+ 1.25728 1 2 cbr 512 ------- 2 0.0 2.0 132 132
- 1.25728 1 2 cbr 512 ------- 2 0.0 2.0 132 132